 vasp.5.4.4.18Apr17-6-g9f103f2a35 (build Jan 14 2020 14:59:05) complex          
  
 executed on             LinuxIFC date 2024.02.26  22:56:08
 running on   48 total cores
 distrk:  each k-point on   48 cores,    1 groups
 distr:  one band on NCORES_PER_BAND=  12 cores,    4 groups


--------------------------------------------------------------------------------------------------------


 INCAR:
 POTCAR:    PAW Cr_pv 02Aug2007                   
 POTCAR:    PAW I 03Oct2001                       
 POTCAR:    PAW Cr_pv 02Aug2007                   
   SHA256 =  351566f26c6a40abee2d93de67e9d8ce0d9d3b0596cfef9b8873103478945c95 Cr
   COPYR  = (c) Copyright 02Aug2007 Georg Kresse                                
   COPYR  = This file is part of the software VASP. Any use, copying, and all ot
   COPYR  = If you do not have a valid VASP license, you may not use, copy or di
   VRHFIN =Cr : 3p4s3d                                                          
   LEXCH  = CA                                                                  
   EATOM  =  1650.3862 eV,  121.3000 Ry                                         
                                                                                
   TITEL  = PAW Cr_pv 02Aug2007                                                 
   LULTRA =        F    use ultrasoft PP ?                                      
   IUNSCR =        1    unscreen: 0-lin 1-nonlin 2-no                           
   RPACOR =    2.080    partial core radius                                     
   POMASS =   51.996; ZVAL   =   12.000    mass and valenz                      
   RCORE  =    2.300    outmost cutoff radius                                   
   RWIGS  =    2.500; RWIGS  =    1.323    wigner-seitz radius (au A)           
   ENMAX  =  265.753; ENMIN  =  199.315 eV                                      
   ICORE  =        3    local potential                                         
   LCOR   =        T    correct aug charges                                     
   LPAW   =        T    paw PP                                                  
   EAUG   =  519.424                                                            
   DEXC   =    0.000                                                            
   RMAX   =    2.356    core radius for proj-oper                               
   RAUG   =    1.300    factor for augmentation sphere                          
   RDEP   =    2.447    radius for radial grids                                 
   RDEPT  =    1.882    core radius for aug-charge                              
                                                                                
   Atomic configuration                                                         
    8 entries                                                                   
     n  l   j            E        occ.                                          
     1  0  0.50     -5851.9200   2.0000                                         
     2  0  0.50      -664.2415   2.0000                                         
     2  1  1.50      -559.7085   6.0000                                         
     3  0  0.50       -73.4061   2.0000                                         
     3  1  1.50       -45.2982   6.0000                                         
     3  2  2.50        -3.1389   5.0000                                         
     4  0  0.50        -4.1894   1.0000                                         
     4  3  2.50        -1.3606   0.0000                                         
   Description                                                                  
     l       E           TYP  RCUT    TYP  RCUT                                 
     1    -45.2981643     23  2.000                                             
     1      1.3605826     23  2.000                                             
     2     -3.1388841     23  2.300                                             
     2     -4.4994667     23  2.300                                             
     0     -4.1894438     23  2.300                                             
     0      9.0974957     23  2.300                                             
     3      2.7211652     23  2.300                                             
  local pseudopotential read in
  partial core-charges read in
  partial kinetic energy density read in
  atomic valenz-charges read in
  non local Contribution for L=           1  read in
    real space projection operators read in
  non local Contribution for L=           1  read in
    real space projection operators read in
  non local Contribution for L=           2  read in
    real space projection operators read in
  non local Contribution for L=           2  read in
    real space projection operators read in
  non local Contribution for L=           0  read in
    real space projection operators read in
  non local Contribution for L=           0  read in
    real space projection operators read in
    PAW grid and wavefunctions read in
 
   number of l-projection  operators is LMAX  =           6
   number of lm-projection operators is LMMAX =          18
 
 POTCAR:    PAW I 03Oct2001                       
   SHA256 =  0b04c3e3564680e98c853dad7960455ab10d7d66ae8f68786bcad558425a7785 I/
   COPYR  = (c) Copyright 03Oct2001 Georg Kresse                                
   COPYR  = This file is part of the software VASP. Any use, copying, and all ot
   COPYR  = If you do not have a valid VASP license, you may not use, copy or di
   VRHFIN =I : s2p5                                                             
   LEXCH  = CA                                                                  
   EATOM  =   318.2436 eV,   23.3902 Ry                                         
                                                                                
   TITEL  = PAW I 03Oct2001                                                     
   LULTRA =        F    use ultrasoft PP ?                                      
   IUNSCR =        1    unscreen: 0-lin 1-nonlin 2-no                           
   RPACOR =    2.200    partial core radius                                     
   POMASS =  126.904; ZVAL   =    7.000    mass and valenz                      
   RCORE  =    2.300    outmost cutoff radius                                   
   RWIGS  =    2.810; RWIGS  =    1.487    wigner-seitz radius (au A)           
   ENMAX  =  175.712; ENMIN  =  131.784 eV                                      
   ICORE  =        3    local potential                                         
   LCOR   =        T    correct aug charges                                     
   LPAW   =        T    paw PP                                                  
   EAUG   =  370.139                                                            
   DEXC   =    0.000                                                            
   RMAX   =    2.359    core radius for proj-oper                               
   RAUG   =    1.300    factor for augmentation sphere                          
   RDEP   =    2.392    radius for radial grids                                 
   RDEPT  =    2.170    core radius for aug-charge                              
                                                                                
   Atomic configuration                                                         
   13 entries                                                                   
     n  l   j            E        occ.                                          
     1  0  0.50    -32782.2723   2.0000                                         
     2  0  0.50     -5071.6432   2.0000                                         
     2  1  1.50     -4559.2217   6.0000                                         
     3  0  0.50     -1023.7010   2.0000                                         
     3  1  1.50      -856.9928   6.0000                                         
     3  2  2.50      -605.7196  10.0000                                         
     4  0  0.50      -179.5701   2.0000                                         
     4  1  1.50      -127.1068   6.0000                                         
     4  2  2.50       -50.3864  10.0000                                         
     5  0  0.50       -17.6026   2.0000                                         
     5  1  0.50        -7.2430   5.0000                                         
     5  2  1.50        -6.8029   0.0000                                         
     4  3  2.50        -6.8029   0.0000                                         
   Description                                                                  
     l       E           TYP  RCUT    TYP  RCUT                                 
     0    -17.6026160     23  2.300                                             
     0    -18.9631986     23  2.300                                             
     1     -7.2430093     23  2.300                                             
     1     -4.3730304     23  2.300                                             
     2     -6.8029130     23  2.300                                             
     3     -1.3605826     23  2.300                                             
  local pseudopotential read in
  partial core-charges read in
  partial kinetic energy density read in
  atomic valenz-charges read in
  non local Contribution for L=           0  read in
    real space projection operators read in
  non local Contribution for L=           0  read in
    real space projection operators read in
  non local Contribution for L=           1  read in
    real space projection operators read in
  non local Contribution for L=           1  read in
    real space projection operators read in
  non local Contribution for L=           2  read in
    real space projection operators read in
    PAW grid and wavefunctions read in
 
   number of l-projection  operators is LMAX  =           5
   number of lm-projection operators is LMMAX =          13
 
 Optimization of the real space projectors (new method)

 maximal supplied QI-value         = 16.25
 optimisation between [QCUT,QGAM] = [ 12.51, 31.37] = [ 43.85,275.49] Ry 
 Optimized for a Real-space Cutoff    1.29 Angstroem

   l    n(q)    QCUT    max X(q) W(low)/X(q) W(high)/X(q)  e(spline) 
   1     12    12.514     3.251    0.69E-04    0.35E-04    0.64E-06
   1     12    12.514     5.777    0.17E-03    0.84E-04    0.16E-05
   2     11    12.514    60.676    0.82E-05    0.48E-04    0.74E-06
   2     11    12.514    55.648    0.83E-05    0.49E-04    0.75E-06
   0     12    12.514    80.269    0.27E-04    0.13E-04    0.49E-06
   0     12    12.514    37.162    0.20E-04    0.11E-04    0.46E-06
 Optimization of the real space projectors (new method)

 maximal supplied QI-value         = 16.25
 optimisation between [QCUT,QGAM] = [ 12.51, 31.37] = [ 43.85,275.49] Ry 
 Optimized for a Real-space Cutoff    1.21 Angstroem

   l    n(q)    QCUT    max X(q) W(low)/X(q) W(high)/X(q)  e(spline) 
   0     11    12.514   195.377    0.38E-03    0.11E-03    0.15E-05
   0     11    12.514   191.289    0.37E-03    0.11E-03    0.15E-05
   1     11    12.514   115.174    0.30E-03    0.32E-03    0.53E-05
   1     11    12.514    87.544    0.30E-03    0.32E-03    0.52E-05
   2     11    12.514     4.840    0.22E-03    0.17E-03    0.29E-06
  PAW Cr_pv 02Aug2007                   :
 energy of atom  1       EATOM=-1650.3862
 kinetic energy error for atom=    0.0046 (will be added to EATOM!!)
  PAW I 03Oct2001                       :
 energy of atom  2       EATOM= -318.2436
 kinetic energy error for atom=    0.0005 (will be added to EATOM!!)
 
 
 POSCAR: CrI3                                    
  positions in direct lattice
  velocities in cartesian coordinates
 exchange correlation table for  LEXCH =        2
   RHO(1)=    0.500       N(1)  =     2000
   RHO(2)=  100.500       N(2)  =     4000

 VTST: version 3.1, (03/28/14)

 CHAIN: initializing optimizer
 
 OPT: Using VASP Dynamics algorithm
 CHAIN: Read ICHAIN            0
 
 POSCAR: CrI3                                    
  positions in direct lattice
  velocities in cartesian coordinates
 


--------------------------------------------------------------------------------------------------------


 ion  position               nearest neighbor table
   1  0.587  0.337  0.500-   7 2.67  11 2.67   9 2.67  15 2.67  13 2.67   5 2.67
   2  0.587  0.837  0.500-   8 2.66  12 2.67  10 2.67  16 2.67  14 2.67   6 2.67
   3  0.253  0.004  0.500-  10 2.67   5 2.67   8 2.67  16 2.67  14 2.67  11 2.67
   4  0.253  0.504  0.500-   6 2.66  13 2.67   9 2.67   7 2.67  15 2.67  12 2.67
   5  0.565  0.170  0.569-   3 2.67   1 2.67
   6  0.565  0.670  0.569-   4 2.66   2 2.67
   7  0.920  0.494  0.569-   1 2.67   4 2.67
   8  0.920  0.994  0.568-   2 2.66   3 2.67
   9  0.274  0.348  0.569-   4 2.67   1 2.67
  10  0.274  0.848  0.568-   3 2.67   2 2.67
  11  0.273  0.171  0.431-   1 2.67   3 2.67
  12  0.273  0.671  0.431-   2 2.67   4 2.67
  13  0.920  0.347  0.432-   4 2.67   1 2.67
  14  0.920  0.848  0.431-   3 2.67   2 2.67
  15  0.567  0.494  0.431-   1 2.67   4 2.67
  16  0.567  0.994  0.431-   3 2.67   2 2.67
 

IMPORTANT INFORMATION: All symmetrisations will be switched off!
NOSYMM: (Re-)initialisation of all symmetry stuff for point group C_1.

 
 
 KPOINTS: Automatic mesh                          

Automatic generation of k-mesh.
Space group operators:
 irot       det(A)        alpha          n_x          n_y          n_z        tau_x        tau_y        tau_z
    1     1.000000     0.000000     1.000000     0.000000     0.000000     0.000000     0.000000     0.000000
 
 Subroutine IBZKPT returns following result:
 ===========================================
 
 Found     40 irreducible k-points:
 
 Following reciprocal coordinates:
            Coordinates               Weight
  0.000000  0.000000  0.000000      1.000000
  0.125000  0.000000  0.000000      1.000000
  0.250000  0.000000  0.000000      1.000000
  0.375000 -0.000000  0.000000      1.000000
  0.500000  0.000000  0.000000      1.000000
 -0.375000  0.000000  0.000000      1.000000
 -0.250000  0.000000  0.000000      1.000000
 -0.125000  0.000000  0.000000      1.000000
  0.000000  0.200000  0.000000      1.000000
  0.125000  0.200000  0.000000      1.000000
  0.250000  0.200000  0.000000      1.000000
  0.375000  0.200000  0.000000      1.000000
  0.500000  0.200000  0.000000      1.000000
 -0.375000  0.200000  0.000000      1.000000
 -0.250000  0.200000  0.000000      1.000000
 -0.125000  0.200000  0.000000      1.000000
  0.000000  0.400000  0.000000      1.000000
  0.125000  0.400000  0.000000      1.000000
  0.250000  0.400000  0.000000      1.000000
  0.375000  0.400000  0.000000      1.000000
  0.500000  0.400000  0.000000      1.000000
 -0.375000  0.400000  0.000000      1.000000
 -0.250000  0.400000  0.000000      1.000000
 -0.125000  0.400000  0.000000      1.000000
  0.000000 -0.400000  0.000000      1.000000
  0.125000 -0.400000  0.000000      1.000000
  0.250000 -0.400000  0.000000      1.000000
  0.375000 -0.400000  0.000000      1.000000
  0.500000 -0.400000  0.000000      1.000000
 -0.375000 -0.400000  0.000000      1.000000
 -0.250000 -0.400000  0.000000      1.000000
 -0.125000 -0.400000  0.000000      1.000000
  0.000000 -0.200000  0.000000      1.000000
  0.125000 -0.200000  0.000000      1.000000
  0.250000 -0.200000  0.000000      1.000000
  0.375000 -0.200000  0.000000      1.000000
  0.500000 -0.200000  0.000000      1.000000
 -0.375000 -0.200000  0.000000      1.000000
 -0.250000 -0.200000  0.000000      1.000000
 -0.125000 -0.200000  0.000000      1.000000
 
 Following cartesian coordinates:
            Coordinates               Weight
  0.000000  0.000000  0.000000      1.000000
  0.018453  0.010654  0.000000      1.000000
  0.036906  0.021307  0.000000      1.000000
  0.055358  0.031961  0.000000      1.000000
  0.073811  0.042615  0.000000      1.000000
 -0.055358 -0.031961  0.000000      1.000000
 -0.036906 -0.021307  0.000000      1.000000
 -0.018453 -0.010654  0.000000      1.000000
  0.000000  0.017046  0.000000      1.000000
  0.018453  0.027700  0.000000      1.000000
  0.036906  0.038353  0.000000      1.000000
  0.055358  0.049007  0.000000      1.000000
  0.073811  0.059661  0.000000      1.000000
 -0.055358 -0.014915  0.000000      1.000000
 -0.036906 -0.004261  0.000000      1.000000
 -0.018453  0.006392  0.000000      1.000000
  0.000000  0.034092  0.000000      1.000000
  0.018453  0.044746  0.000000      1.000000
  0.036906  0.055399  0.000000      1.000000
  0.055358  0.066053  0.000000      1.000000
  0.073811  0.076707  0.000000      1.000000
 -0.055358  0.002131  0.000000      1.000000
 -0.036906  0.012784  0.000000      1.000000
 -0.018453  0.023438  0.000000      1.000000
  0.000000 -0.034092  0.000000      1.000000
  0.018453 -0.023438  0.000000      1.000000
  0.036906 -0.012784  0.000000      1.000000
  0.055358 -0.002131  0.000000      1.000000
  0.073811  0.008523  0.000000      1.000000
 -0.055358 -0.066053  0.000000      1.000000
 -0.036906 -0.055399  0.000000      1.000000
 -0.018453 -0.044746  0.000000      1.000000
  0.000000 -0.017046  0.000000      1.000000
  0.018453 -0.006392  0.000000      1.000000
  0.036906  0.004261  0.000000      1.000000
  0.055358  0.014915  0.000000      1.000000
  0.073811  0.025569  0.000000      1.000000
 -0.055358 -0.049007  0.000000      1.000000
 -0.036906 -0.038353  0.000000      1.000000
 -0.018453 -0.027700  0.000000      1.000000
 


--------------------------------------------------------------------------------------------------------




 Dimension of arrays:
   k-points           NKPTS =     40   k-points in BZ     NKDIM =     40   number of bands    NBANDS=    180
   number of dos      NEDOS =    301   number of ions     NIONS =     16
   non local maximal  LDIM  =      6   non local SUM 2l+1 LMDIM =     18
   total plane-waves  NPLWV = ******
   max r-space proj   IRMAX =   5365   max aug-charges    IRDMAX=  72414
   dimension x,y,z NGX =    54 NGY =  108 NGZ =  180
   dimension x,y,z NGXF=    70 NGYF=  140 NGZF=  224
   support grid    NGXF=   140 NGYF=  280 NGZF=  448
   ions per type =               4  12
   NGX,Y,Z   is equivalent  to a cutoff of  13.25, 13.25, 13.53 a.u.
   NGXF,Y,Z  is equivalent  to a cutoff of  17.18, 17.18, 16.83 a.u.

 SYSTEM =  CuFeSb                                  
 POSCAR =  CrI3                                    

 Startparameter for this run:
   NWRITE =      2    write-flag & timer
   PREC   = high      normal or accurate (medium, high low for compatibility)
   ISTART =      1    job   : 0-new  1-cont  2-samecut
   ICHARG =      0    charge: 1-file 2-atom 10-const
   ISPIN  =      1    spin polarized calculation?
   LNONCOLLINEAR =      T non collinear calculations
   LSORBIT =      T    spin-orbit coupling
   INIWAV =      1    electr: 0-lowe 1-rand  2-diag
   LASPH  =      F    aspherical Exc in radial PAW
   METAGGA=      F    non-selfconsistent MetaGGA calc.

 Electronic Relaxation 1
   ENCUT  =  600.0 eV  44.10 Ry    6.64 a.u.  13.53 27.06 44.18*2*pi/ulx,y,z
   ENINI  =  600.0     initial cutoff
   ENAUG  =  519.4 eV  augmentation charge cutoff
   NELM   =     40;   NELMIN=  4; NELMDL=  0     # of ELM steps 
   EDIFF  = 0.1E-07   stopping-criterion for ELM
   LREAL  =      T    real-space projection
   NLSPLINE    = F    spline interpolate recip. space projectors
   LCOMPAT=      F    compatible to vasp.4.4
   GGA_COMPAT  = F    GGA compatible to vasp.4.4-vasp.4.6
   LMAXPAW     = -100 max onsite density
   LMAXMIX     =    6 max onsite mixed and CHGCAR
   VOSKOWN=      0    Vosko Wilk Nusair interpolation
   ROPT   =   -0.00040  -0.00040
 Ionic relaxation
   EDIFFG = -.1E-01   stopping-criterion for IOM
   NSW    =      3    number of steps for IOM
   NBLOCK =      1;   KBLOCK =      3    inner block; outer block 
   IBRION =     -1    ionic relax: 0-MD 1-quasi-New 2-CG
   NFREE  =      0    steps in history (QN), initial steepest desc. (CG)
   ISIF   =      2    stress and relaxation
   IWAVPR =     10    prediction:  0-non 1-charg 2-wave 3-comb
   ISYM   =     -1    0-nonsym 1-usesym 2-fastsym
   LCORR  =      T    Harris-Foulkes like correction to forces

   POTIM  = 0.5000    time-step for ionic-motion
   TEIN   =    0.0    initial temperature
   TEBEG  =    0.0;   TEEND  =   0.0 temperature during run
   SMASS  =  -3.00    Nose mass-parameter (am)
   estimated Nose-frequenzy (Omega)   =  0.10E-29 period in steps =****** mass=  -0.105E-26a.u.
   SCALEE = 1.0000    scale energy and forces
   NPACO  =    256;   APACO  = 16.0  distance and # of slots for P.C.
   PSTRESS=    0.0 pullay stress

  Mass of Ions in am
   POMASS =  52.00126.90
  Ionic Valenz
   ZVAL   =  12.00  7.00
  Atomic Wigner-Seitz radii
   RWIGS  =  -1.00 -1.00
  virtual crystal weights 
   VCA    =   1.00  1.00
   NELECT =     132.0000    total number of electrons
   NUPDOWN=      -1.0000    fix difference up-down

 DOS related values:
   EMIN   =  10.00;   EMAX   =-10.00  energy-range for DOS
   EFERMI =   0.00
   ISMEAR =     0;   SIGMA  =   0.10  broadening in eV -4-tet -1-fermi 0-gaus

 Electronic relaxation 2 (details)
   IALGO  =     38    algorithm
   LDIAG  =      T    sub-space diagonalisation (order eigenvalues)
   LSUBROT=      F    optimize rotation matrix (better conditioning)
   TURBO    =      0    0=normal 1=particle mesh
   IRESTART =      0    0=no restart 2=restart with 2 vectors
   NREBOOT  =      0    no. of reboots
   NMIN     =      0    reboot dimension
   EREF     =   0.00    reference energy to select bands
   IMIX   =      4    mixing-type and parameters
     AMIX     =   0.20;   BMIX     =  0.00
     AMIX_MAG =   0.80;   BMIX_MAG =  0.00
     AMIN     =   0.10
     WC   =   100.;   INIMIX=   1;  MIXPRE=   1;  MAXMIX= -45

 Intra band minimization:
   WEIMIN = 0.0000     energy-eigenvalue tresh-hold
   EBREAK =  0.14E-10  absolut break condition
   DEPER  =   0.30     relativ break condition  

   TIME   =   0.40     timestep for ELM

  volume/ion in A,a.u.               =     109.89       741.56
  Fermi-wavevector in a.u.,A,eV,Ry     =   0.690626  1.305093  6.489488  0.476964
  Thomas-Fermi vector in A             =   1.772047
 
 Write flags
   LWAVE        =      T    write WAVECAR
   LDOWNSAMPLE  =      F    k-point downsampling of WAVECAR
   LCHARG       =      T    write CHGCAR
   LVTOT        =      F    write LOCPOT, total local potential
   LVHAR        =      F    write LOCPOT, Hartree potential only
   LELF         =      F    write electronic localiz. function (ELF)
   LORBIT       =     11    0 simple, 1 ext, 2 COOP (PROOUT), +10 PAW based schemes


 Dipole corrections
   LMONO  =      F    monopole corrections only (constant potential shift)
   LDIPOL =      F    correct potential (dipole corrections)
   IDIPOL =      0    1-x, 2-y, 3-z, 4-all directions 
   EPSILON=  1.0000000 bulk dielectric constant

 LDA+U is selected, type is set to LDAUTYPE =  2
   angular momentum for each species LDAUL =     2   -1
   U (eV)           for each species LDAUU =   0.5  0.0
   J (eV)           for each species LDAUJ =   0.0  0.0
 Exchange correlation treatment:
   GGA     =    --    GGA type
   LEXCH   =     2    internal setting for exchange type
   VOSKOWN=      0    Vosko Wilk Nusair interpolation
   LHFCALC =     F    Hartree Fock is set to
   LHFONE  =     F    Hartree Fock one center treatment
   AEXX    =    0.0000 exact exchange contribution

 Linear response parameters
   LEPSILON=     F    determine dielectric tensor
   LRPA    =     F    only Hartree local field effects (RPA)
   LNABLA  =     F    use nabla operator in PAW spheres
   LVEL    =     F    velocity operator in full k-point grid
   LINTERFAST=   F  fast interpolation
   KINTER  =     0    interpolate to denser k-point grid
   CSHIFT  =0.1000    complex shift for real part using Kramers Kronig
   OMEGAMAX=  -1.0    maximum frequency
   DEG_THRESHOLD= 0.2000000E-02 threshold for treating states as degnerate
   RTIME   =   -0.100 relaxation time in fs
  (WPLASMAI=    0.000 imaginary part of plasma frequency in eV, 0.658/RTIME)
   DFIELD  = 0.0000000 0.0000000 0.0000000 field for delta impulse in time
 
 Orbital magnetization related:
   ORBITALMAG=     F  switch on orbital magnetization
   LCHIMAG   =     F  perturbation theory with respect to B field
   DQ        =  0.001000  dq finite difference perturbation B field
   LLRAUG    =     F  two centre corrections for induced B field



--------------------------------------------------------------------------------------------------------


 Static calculation
 charge density and potential will be updated during run
 non collinear spin polarized calculation
 Variant of blocked Davidson
 Davidson routine will perform the subspace rotation
 perform sub-space diagonalisation
    after iterative eigenvector-optimisation
 modified Broyden-mixing scheme, WC =      100.0
 initial mixing is a Kerker type mixing with AMIX =  0.2000 and BMIX =      0.0000
 Hartree-type preconditioning will be used
 using additional bands          114
 real space projection scheme for non local part
 use partial core corrections
 calculate Harris-corrections to forces 
   (improved forces if not selfconsistent)
 use of overlap-Matrix (Vanderbilt PP)
 Gauss-broadening in eV      SIGMA  =   0.10


--------------------------------------------------------------------------------------------------------


  energy-cutoff  :      600.00
  volume of cell :     1758.21
      direct lattice vectors                 reciprocal lattice vectors
     6.774049958  0.000000000  0.000000000     0.147622177  0.085229653  0.000000000
    -6.774049958 11.733005709  0.000000000     0.000000000  0.085229653  0.000000000
     0.000000000  0.000000000 22.121394461     0.000000000  0.000000000  0.045205107

  length of vectors
     6.774049958 13.548105986 22.121394461     0.170459381  0.085229653  0.045205107


 
 old parameters found on file WAVECAR:
  energy-cutoff  :      600.00
  volume of cell :     1758.21
      direct lattice vectors                 reciprocal lattice vectors
     6.774049958  0.000000000  0.000000000     0.147622177  0.085229653  0.000000000
    -6.774049958 11.733005709  0.000000000     0.000000000  0.085229653  0.000000000
     0.000000000  0.000000000 22.121394461     0.000000000  0.000000000  0.045205107

  length of vectors

 
 k-points in units of 2pi/SCALE and weight: Automatic mesh                          
   0.00000000  0.00000000  0.00000000       0.025
   0.01845277  0.01065371  0.00000000       0.025
   0.03690554  0.02130741  0.00000000       0.025
   0.05535832  0.03196112  0.00000000       0.025
   0.07381109  0.04261483  0.00000000       0.025
  -0.05535832 -0.03196112  0.00000000       0.025
  -0.03690554 -0.02130741  0.00000000       0.025
  -0.01845277 -0.01065371  0.00000000       0.025
   0.00000000  0.01704593  0.00000000       0.025
   0.01845277  0.02769964  0.00000000       0.025
   0.03690554  0.03835334  0.00000000       0.025
   0.05535832  0.04900705  0.00000000       0.025
   0.07381109  0.05966076  0.00000000       0.025
  -0.05535832 -0.01491519  0.00000000       0.025
  -0.03690554 -0.00426148  0.00000000       0.025
  -0.01845277  0.00639222  0.00000000       0.025
   0.00000000  0.03409186  0.00000000       0.025
   0.01845277  0.04474557  0.00000000       0.025
   0.03690554  0.05539927  0.00000000       0.025
   0.05535832  0.06605298  0.00000000       0.025
   0.07381109  0.07670669  0.00000000       0.025
  -0.05535832  0.00213074  0.00000000       0.025
  -0.03690554  0.01278445  0.00000000       0.025
  -0.01845277  0.02343815  0.00000000       0.025
   0.00000000 -0.03409186  0.00000000       0.025
   0.01845277 -0.02343815  0.00000000       0.025
   0.03690554 -0.01278445  0.00000000       0.025
   0.05535832 -0.00213074  0.00000000       0.025
   0.07381109  0.00852297  0.00000000       0.025
  -0.05535832 -0.06605298  0.00000000       0.025
  -0.03690554 -0.05539927  0.00000000       0.025
  -0.01845277 -0.04474557  0.00000000       0.025
   0.00000000 -0.01704593  0.00000000       0.025
   0.01845277 -0.00639222  0.00000000       0.025
   0.03690554  0.00426148  0.00000000       0.025
   0.05535832  0.01491519  0.00000000       0.025
   0.07381109  0.02556890  0.00000000       0.025
  -0.05535832 -0.04900705  0.00000000       0.025
  -0.03690554 -0.03835334  0.00000000       0.025
  -0.01845277 -0.02769964  0.00000000       0.025
 
 k-points in reciprocal lattice and weights: Automatic mesh                          
   0.00000000  0.00000000  0.00000000       0.025
   0.12500000  0.00000000  0.00000000       0.025
   0.25000000  0.00000000  0.00000000       0.025
   0.37500000 -0.00000000  0.00000000       0.025
   0.50000000  0.00000000  0.00000000       0.025
  -0.37500000  0.00000000  0.00000000       0.025
  -0.25000000  0.00000000  0.00000000       0.025
  -0.12500000  0.00000000  0.00000000       0.025
   0.00000000  0.20000000  0.00000000       0.025
   0.12500000  0.20000000  0.00000000       0.025
   0.25000000  0.20000000  0.00000000       0.025
   0.37500000  0.20000000  0.00000000       0.025
   0.50000000  0.20000000  0.00000000       0.025
  -0.37500000  0.20000000  0.00000000       0.025
  -0.25000000  0.20000000  0.00000000       0.025
  -0.12500000  0.20000000  0.00000000       0.025
   0.00000000  0.40000000  0.00000000       0.025
   0.12500000  0.40000000  0.00000000       0.025
   0.25000000  0.40000000  0.00000000       0.025
   0.37500000  0.40000000  0.00000000       0.025
   0.50000000  0.40000000  0.00000000       0.025
  -0.37500000  0.40000000  0.00000000       0.025
  -0.25000000  0.40000000  0.00000000       0.025
  -0.12500000  0.40000000  0.00000000       0.025
   0.00000000 -0.40000000  0.00000000       0.025
   0.12500000 -0.40000000  0.00000000       0.025
   0.25000000 -0.40000000  0.00000000       0.025
   0.37500000 -0.40000000  0.00000000       0.025
   0.50000000 -0.40000000  0.00000000       0.025
  -0.37500000 -0.40000000  0.00000000       0.025
  -0.25000000 -0.40000000  0.00000000       0.025
  -0.12500000 -0.40000000  0.00000000       0.025
   0.00000000 -0.20000000  0.00000000       0.025
   0.12500000 -0.20000000  0.00000000       0.025
   0.25000000 -0.20000000  0.00000000       0.025
   0.37500000 -0.20000000  0.00000000       0.025
   0.50000000 -0.20000000  0.00000000       0.025
  -0.37500000 -0.20000000  0.00000000       0.025
  -0.25000000 -0.20000000  0.00000000       0.025
  -0.12500000 -0.20000000  0.00000000       0.025
 
 position of ions in fractional coordinates (direct lattice) 
   0.58664522  0.33732451  0.50016027
   0.58676014  0.83723996  0.49989180
   0.25336703  0.00432778  0.49966863
   0.25316148  0.50416286  0.49997362
   0.56473858  0.17007863  0.56896654
   0.56491651  0.67018160  0.56896376
   0.91957450  0.49396131  0.56872723
   0.91979313  0.99385416  0.56834783
   0.27433991  0.34814934  0.56896805
   0.27424740  0.84829701  0.56846140
   0.27334417  0.17130352  0.43120742
   0.27259251  0.67099891  0.43140700
   0.92027113  0.34697649  0.43155699
   0.92035108  0.84760719  0.43093351
   0.56717602  0.49421625  0.43144050
   0.56728112  0.99424013  0.43132546
 
 position of ions in cartesian coordinates  (Angst):
   1.68891099  3.95783038 11.06424264
  -1.69676284  9.82334129 11.05830366
   1.68700432  0.05077789 11.05336679
  -1.70029587  5.91534569 11.06011361
   2.67344615  1.99553359 12.58633324
  -0.71307096  7.86324454 12.58627177
   2.88312506  5.79565084 12.58103932
  -0.50169309 11.66089652 12.57264662
  -0.49998873  4.08483818 12.58636668
  -3.88864077  9.95307370 12.57515882
   0.69122848  2.00990514  9.53890939
  -2.69882488  7.87283406  9.54332433
   3.88352652  4.07107713  9.54664249
   0.49277074  9.94498004  9.53285024
   0.49423316  5.79864205  9.54406550
  -2.89224166 11.66542513  9.54152059
 
 Euler angles ALPHA=     0.0000000  BETA=     0.0000000

 transformation matrix from SAXIS to cartesian coordinates
 ---------------------------------------------------------
     1.0000000 m_x     0.0000000 m_y     0.0000000 m_z
     0.0000000 m_x     1.0000000 m_y     0.0000000 m_z
     0.0000000 m_x     0.0000000 m_y     1.0000000 m_z

 transformation matrix from cartesian coordinates to SAXIS
 ---------------------------------------------------------
     1.0000000 m_x     0.0000000 m_y     0.0000000 m_z
     0.0000000 m_x     1.0000000 m_y     0.0000000 m_z
     0.0000000 m_x     0.0000000 m_y     1.0000000 m_z




--------------------------------------------------------------------------------------------------------


 k-point  1 :   0.0000 0.0000 0.0000  plane waves:  117362
 k-point  2 :   0.1250 0.0000 0.0000  plane waves:  117428
 k-point  3 :   0.2500 0.0000 0.0000  plane waves:  117250
 k-point  4 :   0.3750-0.0000 0.0000  plane waves:  117254
 k-point  5 :   0.5000 0.0000 0.0000  plane waves:  117224
 k-point  6 :  -0.3750 0.0000 0.0000  plane waves:  117254
 k-point  7 :  -0.2500 0.0000 0.0000  plane waves:  117250
 k-point  8 :  -0.1250 0.0000 0.0000  plane waves:  117428
 k-point  9 :   0.0000 0.2000 0.0000  plane waves:  117426
 k-point 10 :   0.1250 0.2000 0.0000  plane waves:  117418
 k-point 11 :   0.2500 0.2000 0.0000  plane waves:  117318
 k-point 12 :   0.3750 0.2000 0.0000  plane waves:  117232
 k-point 13 :   0.5000 0.2000 0.0000  plane waves:  117200
 k-point 14 :  -0.3750 0.2000 0.0000  plane waves:  117326
 k-point 15 :  -0.2500 0.2000 0.0000  plane waves:  117336
 k-point 16 :  -0.1250 0.2000 0.0000  plane waves:  117412
 k-point 17 :   0.0000 0.4000 0.0000  plane waves:  117442
 k-point 18 :   0.1250 0.4000 0.0000  plane waves:  117420
 k-point 19 :   0.2500 0.4000 0.0000  plane waves:  117312
 k-point 20 :   0.3750 0.4000 0.0000  plane waves:  117286
 k-point 21 :   0.5000 0.4000 0.0000  plane waves:  117252
 k-point 22 :  -0.3750 0.4000 0.0000  plane waves:  117328
 k-point 23 :  -0.2500 0.4000 0.0000  plane waves:  117388
 k-point 24 :  -0.1250 0.4000 0.0000  plane waves:  117432
 k-point 25 :   0.0000-0.4000 0.0000  plane waves:  117442
 k-point 26 :   0.1250-0.4000 0.0000  plane waves:  117432
 k-point 27 :   0.2500-0.4000 0.0000  plane waves:  117388
 k-point 28 :   0.3750-0.4000 0.0000  plane waves:  117328
 k-point 29 :   0.5000-0.4000 0.0000  plane waves:  117252
 k-point 30 :  -0.3750-0.4000 0.0000  plane waves:  117286
 k-point 31 :  -0.2500-0.4000 0.0000  plane waves:  117312
 k-point 32 :  -0.1250-0.4000 0.0000  plane waves:  117420
 k-point 33 :   0.0000-0.2000 0.0000  plane waves:  117426
 k-point 34 :   0.1250-0.2000 0.0000  plane waves:  117412
 k-point 35 :   0.2500-0.2000 0.0000  plane waves:  117336
 k-point 36 :   0.3750-0.2000 0.0000  plane waves:  117326
 k-point 37 :   0.5000-0.2000 0.0000  plane waves:  117200
 k-point 38 :  -0.3750-0.2000 0.0000  plane waves:  117232
 k-point 39 :  -0.2500-0.2000 0.0000  plane waves:  117318
 k-point 40 :  -0.1250-0.2000 0.0000  plane waves:  117418

 maximum and minimum number of plane-waves per node :      9852     9698

 maximum number of plane-waves:    117442
 maximum index in each direction: 
   IXMAX=   13   IYMAX=   27   IZMAX=   44
   IXMIN=  -14   IYMIN=  -27   IZMIN=  -44


 real space projection operators:
  total allocation   :       8158.62 KBytes
  max/ min on nodes  :        777.68        591.76


 parallel 3D FFT for wavefunctions:
    minimum data exchange during FFTs selected (reduces bandwidth)
 parallel 3D FFT for charge:
    minimum data exchange during FFTs selected (reduces bandwidth)


 total amount of memory used by VASP MPI-rank0   361971. kBytes
=======================================================================

   base      :      30000. kBytes
   nonlr-proj:       2405. kBytes
   fftplans  :      17865. kBytes
   grid      :      27494. kBytes
   one-center:        124. kBytes
   wavefun   :     284083. kBytes
 
     INWAV:  cpu time   29.1325: real time   30.5806
 Broyden mixing: mesh for mixing (old mesh)
   NGX = 27   NGY = 55   NGZ = 89
  (NGX  = 70   NGY  =140   NGZ  =224)
  gives a total of 132165 points

 charge density for first step will be calculated from the start-wavefunctions


--------------------------------------------------------------------------------------------------------


 Maximum index for non-local projection operator          540
 Maximum index for augmentation-charges         1643 (set IRDMAX)


--------------------------------------------------------------------------------------------------------


 initial charge from wavefunction
 First call to EWALD:  gamma=   0.147
 Maximum number of real-space cells 5x 3x 2
 Maximum number of reciprocal cells 2x 3x 5

    FEWALD:  cpu time    0.0566: real time    0.0603


--------------------------------------- Iteration      1(   1)  ---------------------------------------


    POTLOK:  cpu time    0.1652: real time    0.1991
    SETDIJ:  cpu time    0.3131: real time    0.3450
atom =   1  type =  1  l = 2
 
 onsite density matrix
 
spin component  1
 
  0.7399 -0.2106 -0.0001 -0.0016  0.0001     -0.0000 -0.0001  0.0000  0.0043 -0.0072
 -0.2106  0.5731 -0.0001  0.0003 -0.0016      0.0001 -0.0000  0.0000 -0.0059 -0.0043
 -0.0001 -0.0001  0.8827 -0.0004  0.0003     -0.0000 -0.0000 -0.0000  0.0000 -0.0000
 -0.0016  0.0003 -0.0004  0.5736  0.2109     -0.0043  0.0059 -0.0000 -0.0000 -0.0000
  0.0001 -0.0016  0.0003  0.2109  0.7394      0.0072  0.0043  0.0000  0.0000  0.0000
 
spin component  2
 
  0.0047  0.0056 -0.0000  0.0000  0.0000     -0.0004  0.0002  0.0075 -0.0057  0.0046
 -0.0029 -0.0050 -0.0000 -0.0000  0.0000      0.0002 -0.0003 -0.0049  0.0050 -0.0028
 -0.0000 -0.0000  0.0001 -0.0144 -0.0024     -0.0024  0.0144 -0.0005  0.0000 -0.0000
 -0.0000 -0.0001  0.0050  0.0051 -0.0028      0.0029  0.0050  0.0000 -0.0002 -0.0002
  0.0000  0.0000  0.0075  0.0057 -0.0045      0.0046  0.0057  0.0000 -0.0002 -0.0004
 
spin component  3
 
  0.0047 -0.0029 -0.0000 -0.0000  0.0000      0.0004 -0.0002  0.0024 -0.0029 -0.0046
  0.0056 -0.0050 -0.0000 -0.0001  0.0000     -0.0002  0.0003 -0.0144 -0.0050 -0.0057
 -0.0000 -0.0000  0.0001  0.0050  0.0075     -0.0075  0.0049  0.0005 -0.0000 -0.0000
  0.0000 -0.0000 -0.0144  0.0051  0.0057      0.0057 -0.0050 -0.0000  0.0002  0.0002
  0.0000  0.0000 -0.0024 -0.0028 -0.0045     -0.0046  0.0028  0.0000  0.0002  0.0004
 
spin component  4
 
  0.1134  0.0816 -0.0001  0.0009 -0.0002     -0.0000 -0.0000  0.0000  0.0031 -0.0075
  0.0816  0.1785  0.0002  0.0002  0.0003      0.0000  0.0000 -0.0000 -0.0101 -0.0031
 -0.0001  0.0002  0.0510  0.0002 -0.0000     -0.0000  0.0000  0.0000 -0.0000 -0.0000
  0.0009  0.0002  0.0002  0.1780 -0.0815     -0.0031  0.0101  0.0000 -0.0000 -0.0000
 -0.0002  0.0003 -0.0000 -0.0815  0.1135      0.0075  0.0031  0.0000  0.0000  0.0000
 
 occupancies and eigenvectors
 
  o =  0.0502  v =  0.0054  0.0299 -0.0003 -0.0020  0.0007 -0.0027  0.0014 -0.0489  0.0024  0.0007      0.0000  0.0010 -0.0001  0.0300 -0.0055  0.0224 -0.0160  0.9975 -0.0047 -0.0054
  o =  0.0558  v = -0.0206 -0.0288  0.0006 -0.0013  0.0010  0.5668 -0.4290 -0.0210 -0.0049 -0.0064      0.0000 -0.0005 -0.0001  0.0287 -0.0203  0.0399 -0.0239 -0.0051 -0.4242 -0.5564
  o =  0.0583  v =  0.0004  0.0010  0.0141 -0.0006  0.0001  0.2185 -0.1264 -0.0122 -0.3337 -0.5506      0.0000  0.0002 -0.0061 -0.0018  0.0005  0.5587 -0.3385 -0.0144  0.1595  0.2627
  o =  0.2323  v =  0.0006 -0.0015 -0.0002 -0.0008 -0.0005 -0.3683 -0.4906 -0.0000  0.3676 -0.2688      0.0000 -0.0014 -0.0000  0.0021  0.0003 -0.1662 -0.1976 -0.0007 -0.4704  0.3583
  o =  0.2359  v =  0.0003  0.0000  0.0008  0.0001 -0.0001 -0.1577 -0.2365 -0.0008 -0.5656  0.3395      0.0000 -0.0000 -0.0002 -0.0000  0.0003 -0.3575 -0.5903 -0.0003  0.0793 -0.0380
  o =  0.4285  v =  0.4020  0.5708  0.0002 -0.0518  0.0378  0.0273 -0.0222  0.0018 -0.0008 -0.0012      0.0000  0.0069 -0.0007 -0.5811  0.4102 -0.0009  0.0014  0.0003 -0.0226 -0.0271
  o =  0.4327  v = -0.3926 -0.5969 -0.0003 -0.0621  0.0397 -0.0004  0.0002  0.0024 -0.0007 -0.0017      0.0000  0.0068 -0.0007 -0.5803  0.3818 -0.0016  0.0007  0.0396  0.0002  0.0005
  o =  0.8824  v =  0.6114 -0.4020  0.0272  0.0050  0.0124  0.0004 -0.0003 -0.0001  0.0004  0.0006      0.0000  0.0026  0.0341 -0.3728 -0.5685  0.0001 -0.0001  0.0168  0.0002  0.0002
  o =  0.8829  v = -0.0321  0.0214  0.3219 -0.0129 -0.0186  0.0085 -0.0058 -0.0002  0.0020  0.0029      0.0000 -0.0009  0.9454  0.0089  0.0160 -0.0029  0.0019 -0.0003  0.0058  0.0085
  o =  0.8842  v = -0.5558  0.3924  0.0117  0.0128  0.0140 -0.0013 -0.0011 -0.0002  0.0003  0.0005      0.0000  0.0031 -0.0172 -0.4218 -0.5987 -0.0004  0.0003  0.0006 -0.0014  0.0009
atom =   2  type =  1  l = 2
 
 onsite density matrix
 
spin component  1
 
  0.7393 -0.2107  0.0004 -0.0014  0.0004     -0.0000 -0.0001  0.0000  0.0043 -0.0072
 -0.2107  0.5738  0.0006  0.0007 -0.0013      0.0001  0.0000  0.0000 -0.0059 -0.0043
  0.0004  0.0006  0.8826  0.0002 -0.0001     -0.0000 -0.0000  0.0000  0.0000 -0.0000
 -0.0014  0.0007  0.0002  0.5733  0.2108     -0.0043  0.0059 -0.0000 -0.0000 -0.0000
  0.0004 -0.0013 -0.0001  0.2108  0.7396      0.0072  0.0043  0.0000  0.0000  0.0000
 
spin component  2
 
  0.0047  0.0056 -0.0000 -0.0000  0.0000     -0.0001  0.0001  0.0074 -0.0056  0.0046
 -0.0029 -0.0050 -0.0000 -0.0001  0.0000      0.0000 -0.0001 -0.0049  0.0050 -0.0029
 -0.0001 -0.0000  0.0001 -0.0144 -0.0024     -0.0023  0.0144 -0.0001  0.0000 -0.0000
  0.0000 -0.0000  0.0050  0.0051 -0.0028      0.0029  0.0051  0.0000 -0.0000 -0.0001
  0.0000  0.0000  0.0074  0.0057 -0.0046      0.0046  0.0057  0.0000 -0.0000 -0.0001
 
spin component  3
 
  0.0047 -0.0029 -0.0001  0.0000  0.0000      0.0001 -0.0000  0.0023 -0.0029 -0.0046
  0.0056 -0.0050 -0.0000 -0.0000  0.0000     -0.0001  0.0001 -0.0144 -0.0051 -0.0057
 -0.0000 -0.0000  0.0001  0.0050  0.0074     -0.0074  0.0049  0.0001 -0.0000 -0.0000
 -0.0000 -0.0001 -0.0144  0.0051  0.0057      0.0056 -0.0050 -0.0000  0.0000  0.0000
  0.0000  0.0000 -0.0024 -0.0028 -0.0046     -0.0046  0.0029  0.0000  0.0001  0.0001
 
spin component  4
 
  0.1138  0.0817 -0.0003  0.0009 -0.0003     -0.0000  0.0000  0.0000  0.0030 -0.0075
  0.0817  0.1785 -0.0002  0.0003  0.0001     -0.0000  0.0000 -0.0000 -0.0102 -0.0031
 -0.0003 -0.0002  0.0510 -0.0001  0.0001     -0.0000  0.0000  0.0000 -0.0000 -0.0000
  0.0009  0.0003 -0.0001  0.1782 -0.0814     -0.0030  0.0102  0.0000  0.0000 -0.0001
 -0.0003  0.0001  0.0001 -0.0814  0.1135      0.0075  0.0031  0.0000  0.0001 -0.0000
 
 occupancies and eigenvectors
 
  o =  0.0502  v =  0.0054  0.0298  0.0001 -0.0009  0.0003 -0.0024  0.0008 -0.0180 -0.0008 -0.0034      0.0000  0.0002  0.0001  0.0301 -0.0056  0.0201 -0.0112  0.9986 -0.0057 -0.0097
  o =  0.0559  v =  0.0206  0.0289 -0.0004  0.0008 -0.0004 -0.5562  0.4238  0.0137  0.0066  0.0074      0.0000  0.0000 -0.0002 -0.0286  0.0204 -0.0241  0.0138  0.0072  0.4305  0.5676
  o =  0.0584  v =  0.0004  0.0002  0.0138  0.0002  0.0000 -0.2770  0.1715  0.0001 -0.3300 -0.5478      0.0000  0.0002  0.0067 -0.0015  0.0006  0.5431 -0.3276 -0.0208 -0.1483 -0.2449
  o =  0.2323  v = -0.0005  0.0020  0.0002  0.0002  0.0000  0.3911  0.5075 -0.0010 -0.1787  0.1184      0.0000  0.0003 -0.0001 -0.0021 -0.0005 -0.0295 -0.0689 -0.0004  0.5868 -0.4398
  o =  0.2361  v = -0.0002  0.0003 -0.0008  0.0000  0.0000  0.1941  0.2856 -0.0011  0.5520 -0.3304      0.0000  0.0001  0.0002 -0.0003 -0.0002  0.3544  0.5822 -0.0012 -0.0470  0.0113
  o =  0.4285  v =  0.3934  0.5563 -0.0011 -0.0773  0.0541  0.0272 -0.0223  0.0027 -0.0014 -0.0017      0.0000  0.0082  0.0003 -0.5921  0.4167 -0.0015  0.0017  0.0011 -0.0224 -0.0271
  o =  0.4328  v = -0.4029 -0.6093  0.0013 -0.0840  0.0554 -0.0011  0.0009  0.0031 -0.0015 -0.0019      0.0000  0.0078  0.0003 -0.5639  0.3697 -0.0019  0.0015  0.0394  0.0009  0.0011
  o =  0.8824  v =  0.6065 -0.3999 -0.0571 -0.0215 -0.0261  0.0000  0.0000  0.0004 -0.0003 -0.0004      0.0000  0.0008 -0.0027 -0.3747 -0.5719  0.0006 -0.0003  0.0167 -0.0000 -0.0001
  o =  0.8828  v = -0.0331  0.0197 -0.9936 -0.0014 -0.0016 -0.0008  0.0006 -0.0000 -0.0061 -0.0089      0.0000 -0.0003 -0.0956  0.0233  0.0356  0.0089 -0.0060 -0.0011 -0.0006 -0.0008
  o =  0.8841  v = -0.5598  0.3964 -0.0048 -0.0170 -0.0301 -0.0011 -0.0012  0.0005  0.0000  0.0001      0.0000  0.0011  0.0027 -0.4183 -0.5943 -0.0000  0.0001  0.0005 -0.0013  0.0011
atom =   3  type =  1  l = 2
 
 onsite density matrix
 
spin component  1
 
  0.7399 -0.2106 -0.0008  0.0009 -0.0004     -0.0000  0.0000  0.0000  0.0043 -0.0071
 -0.2106  0.5728 -0.0011 -0.0006  0.0007     -0.0000 -0.0000 -0.0000 -0.0059 -0.0044
 -0.0008 -0.0011  0.8825 -0.0010  0.0008     -0.0000  0.0000  0.0000 -0.0000 -0.0000
  0.0009 -0.0006 -0.0010  0.5738  0.2108     -0.0043  0.0059  0.0000  0.0000 -0.0000
 -0.0004  0.0007  0.0008  0.2108  0.7392      0.0071  0.0044  0.0000  0.0000 -0.0000
 
spin component  2
 
  0.0042  0.0059 -0.0000  0.0000 -0.0000      0.0000 -0.0000  0.0075 -0.0056  0.0046
 -0.0026 -0.0053 -0.0000  0.0001  0.0000      0.0000 -0.0000 -0.0049  0.0051 -0.0029
  0.0000 -0.0001 -0.0006 -0.0144 -0.0024     -0.0024  0.0144  0.0001 -0.0000 -0.0000
  0.0000  0.0000  0.0050  0.0048 -0.0031      0.0029  0.0050  0.0000 -0.0000  0.0000
  0.0000  0.0000  0.0075  0.0054 -0.0051      0.0046  0.0057 -0.0000  0.0000  0.0000
 
spin component  3
 
  0.0042 -0.0026  0.0000  0.0000  0.0000     -0.0000 -0.0000  0.0024 -0.0029 -0.0046
  0.0059 -0.0053 -0.0001  0.0000  0.0000      0.0000  0.0000 -0.0144 -0.0050 -0.0057
 -0.0000 -0.0000 -0.0006  0.0050  0.0075     -0.0075  0.0049 -0.0001 -0.0000  0.0000
  0.0000  0.0001 -0.0144  0.0048  0.0054      0.0056 -0.0051  0.0000  0.0000 -0.0000
 -0.0000  0.0000 -0.0024 -0.0031 -0.0051     -0.0046  0.0029  0.0000 -0.0000 -0.0000
 
spin component  4
 
  0.1136  0.0817  0.0003 -0.0003  0.0002     -0.0000  0.0000  0.0000  0.0031 -0.0075
  0.0817  0.1790  0.0005  0.0001 -0.0003     -0.0000 -0.0000 -0.0000 -0.0101 -0.0031
  0.0003  0.0005  0.0512  0.0004 -0.0004     -0.0000  0.0000  0.0000 -0.0000 -0.0000
 -0.0003  0.0001  0.0004  0.1787 -0.0817     -0.0031  0.0101  0.0000  0.0000  0.0000
  0.0002 -0.0003 -0.0004 -0.0817  0.1140      0.0075  0.0031  0.0000 -0.0000  0.0000
 
 occupancies and eigenvectors
 
  o =  0.0504  v =  0.0057  0.0303  0.0001 -0.0009  0.0002 -0.0032  0.0030 -0.0253  0.0006  0.0003      0.0000  0.0008  0.0007  0.0297 -0.0053  0.0028 -0.0056  0.9987  0.0041  0.0107
  o =  0.0561  v = -0.0199 -0.0287  0.0006 -0.0001 -0.0000  0.5814 -0.4377 -0.0045 -0.0145 -0.0277      0.0000  0.0002 -0.0004  0.0288 -0.0209  0.0264 -0.0166  0.0104 -0.4149 -0.5419
  o =  0.0586  v =  0.0014  0.0012  0.0102 -0.0005 -0.0000  0.4224 -0.2503  0.0010 -0.2364 -0.3947      0.0000 -0.0006 -0.0115 -0.0016  0.0016  0.4077 -0.2463 -0.0065  0.2974  0.4812
  o =  0.2331  v =  0.0003 -0.0024 -0.0000  0.0002 -0.0001 -0.4207 -0.5530 -0.0021  0.0014  0.0000      0.0000 -0.0000  0.0000  0.0019  0.0008  0.0042  0.0027 -0.0020 -0.5731  0.4344
  o =  0.2365  v =  0.0004  0.0007 -0.0001 -0.0000  0.0000  0.3687  0.6093  0.0024  0.0867 -0.0532      0.0000 -0.0000  0.0008 -0.0006  0.0003  0.0527  0.0843 -0.0016 -0.5889  0.3546
  o =  0.4284  v =  0.4186  0.5964  0.0023  0.0471 -0.0326  0.0268 -0.0229 -0.0018  0.0010  0.0012      0.0000 -0.0052 -0.0019 -0.5553  0.3934  0.0008 -0.0010 -0.0014 -0.0219 -0.0277
  o =  0.4326  v = -0.3746 -0.5715 -0.0018  0.0584 -0.0392  0.0010 -0.0004 -0.0021  0.0011  0.0012      0.0000 -0.0057 -0.0020 -0.6055  0.3999  0.0011 -0.0013  0.0396 -0.0005 -0.0010
  o =  0.8823  v =  0.5934 -0.3901  0.1564 -0.0164 -0.0270  0.0005 -0.0003  0.0003  0.0010  0.0014      0.0000 -0.0015  0.1006 -0.3726 -0.5665 -0.0014  0.0009  0.0164  0.0008  0.0013
  o =  0.8827  v = -0.1083  0.0687  0.6324 -0.0444 -0.0614  0.0068 -0.0046  0.0004  0.0038  0.0058      0.0000 -0.0041  0.7494  0.0677  0.1066 -0.0057  0.0039 -0.0036  0.0045  0.0067
  o =  0.8841  v = -0.5658  0.3987  0.0459 -0.0126 -0.0147 -0.0011 -0.0013  0.0002  0.0002  0.0004      0.0000 -0.0008 -0.0380 -0.4145 -0.5875 -0.0004  0.0003  0.0003 -0.0012  0.0012
atom =   4  type =  1  l = 2
 
 onsite density matrix
 
spin component  1
 
  0.7397 -0.2106  0.0001  0.0011  0.0003     -0.0000  0.0000  0.0000  0.0043 -0.0072
 -0.2106  0.5732  0.0001  0.0005  0.0013     -0.0000  0.0000 -0.0000 -0.0059 -0.0043
  0.0001  0.0001  0.8826 -0.0005  0.0004     -0.0000  0.0000 -0.0000  0.0000 -0.0000
  0.0011  0.0005 -0.0005  0.5736  0.2109     -0.0043  0.0059 -0.0000 -0.0000 -0.0000
  0.0003  0.0013  0.0004  0.2109  0.7393      0.0072  0.0043  0.0000  0.0000 -0.0000
 
spin component  2
 
  0.0044  0.0058 -0.0000  0.0000 -0.0000     -0.0002  0.0001  0.0075 -0.0056  0.0046
 -0.0027 -0.0052  0.0000  0.0001 -0.0000      0.0001 -0.0001 -0.0049  0.0051 -0.0029
  0.0000 -0.0000 -0.0003 -0.0144 -0.0024     -0.0024  0.0144 -0.0002 -0.0000 -0.0001
  0.0000  0.0000  0.0050  0.0049 -0.0030      0.0029  0.0050  0.0000 -0.0001 -0.0001
 -0.0000  0.0000  0.0075  0.0055 -0.0049      0.0046  0.0057 -0.0000 -0.0001 -0.0002
 
spin component  3
 
  0.0044 -0.0027  0.0000  0.0000 -0.0000      0.0002 -0.0001  0.0024 -0.0029 -0.0046
  0.0058 -0.0052 -0.0000  0.0000  0.0000     -0.0001  0.0001 -0.0144 -0.0050 -0.0057
 -0.0000  0.0000 -0.0003  0.0050  0.0075     -0.0075  0.0049  0.0002 -0.0000  0.0000
  0.0000  0.0001 -0.0144  0.0049  0.0055      0.0056 -0.0051  0.0000  0.0001  0.0001
 -0.0000 -0.0000 -0.0024 -0.0030 -0.0049     -0.0046  0.0029  0.0001  0.0001  0.0002
 
spin component  4
 
  0.1136  0.0818 -0.0001 -0.0001 -0.0002      0.0000  0.0000  0.0000  0.0030 -0.0075
  0.0818  0.1788  0.0001  0.0001 -0.0008     -0.0000  0.0000 -0.0000 -0.0102 -0.0031
 -0.0001  0.0001  0.0511  0.0002 -0.0001     -0.0000  0.0000 -0.0000  0.0000 -0.0000
 -0.0001  0.0001  0.0002  0.1782 -0.0815     -0.0030  0.0102 -0.0000  0.0000 -0.0000
 -0.0002 -0.0008 -0.0001 -0.0815  0.1137      0.0075  0.0031  0.0000  0.0000  0.0000
 
 occupancies and eigenvectors
 
  o =  0.0503  v =  0.0055  0.0300 -0.0001 -0.0019  0.0004 -0.0028  0.0018 -0.0500  0.0010 -0.0003      0.0000  0.0012  0.0005  0.0299 -0.0055  0.0133 -0.0090  0.9977 -0.0014 -0.0001
  o =  0.0558  v =  0.0202  0.0289 -0.0009  0.0005 -0.0005 -0.5823  0.4389  0.0122  0.0160  0.0304      0.0000  0.0001  0.0005 -0.0286  0.0207 -0.0420  0.0294 -0.0003  0.4134  0.5394
  o =  0.0584  v = -0.0014 -0.0018 -0.0110  0.0008  0.0000 -0.3797  0.2253  0.0088  0.2556  0.4259      0.0000  0.0004  0.0106  0.0021 -0.0015 -0.4445  0.2675  0.0068 -0.2833 -0.4568
  o =  0.2326  v = -0.0004  0.0021  0.0002  0.0000  0.0004  0.3890  0.5043 -0.0003 -0.2223  0.1513      0.0000  0.0006 -0.0001 -0.0020 -0.0006  0.0360  0.0298  0.0010  0.5764 -0.4331
  o =  0.2363  v = -0.0002 -0.0003 -0.0006  0.0004  0.0001 -0.2441 -0.4078  0.0005  0.3247 -0.1798      0.0000  0.0005 -0.0006  0.0002 -0.0002  0.3229  0.5119  0.0006  0.4423 -0.2729
  o =  0.4284  v =  0.4011  0.5684 -0.0003 -0.0408  0.0249  0.0270 -0.0227  0.0013 -0.0005 -0.0011      0.0000 -0.0008 -0.0009 -0.5842  0.4122 -0.0010  0.0007  0.0005 -0.0222 -0.0275
  o =  0.4327  v = -0.3940 -0.5989  0.0002 -0.0358  0.0275 -0.0003  0.0005  0.0012 -0.0005 -0.0012      0.0000 -0.0008 -0.0009 -0.5803  0.3817 -0.0010  0.0004  0.0397  0.0004  0.0003
  o =  0.8824  v = -0.5945  0.3902 -0.0242 -0.0049 -0.0051  0.0000 -0.0000  0.0001 -0.0003 -0.0004      0.0000  0.0028 -0.0254  0.3856  0.5866  0.0001 -0.0000 -0.0168 -0.0003 -0.0005
  o =  0.8828  v = -0.0260  0.0174  0.0244 -0.0191 -0.0279  0.0090 -0.0061  0.0001  0.0002  0.0002      0.0000 -0.0002  0.9985  0.0013  0.0051 -0.0002  0.0002 -0.0008  0.0061  0.0090
  o =  0.8841  v =  0.5739 -0.4047 -0.0236 -0.0020 -0.0051  0.0011  0.0013  0.0001 -0.0003 -0.0004      0.0000  0.0029  0.0189  0.4101  0.5811  0.0004 -0.0003 -0.0001  0.0012 -0.0012
     EDDAV:  cpu time  138.0438: real time  139.9953
       DOS:  cpu time    0.0522: real time    0.1175
    CHARGE:  cpu time   11.5511: real time   13.1893
    MIXING:  cpu time    0.0115: real time    0.1722
    --------------------------------------------
      LOOP:  cpu time  150.1371: real time  154.0194

 eigenvalue-minimisations  : 18020
 total energy-change (2. order) :-0.7114890E+02  (-0.1741566E-07)
 number of electron     132.0000006 magnetization      -0.0052873      0.0062526     12.0359467
 augmentation part        3.5830784 magnetization      -0.0032813      0.0039072      7.4843744

 Broyden mixing:
  rms(total) = 0.22615E-03    rms(broyden)= 0.22615E-03
  rms(prec ) = 0.25065E-03
  weight for this iteration     100.00

 Free energy of the ion-electron system (eV)
  ---------------------------------------------------
  alpha Z        PSCENC =        38.66206825
  Ewald energy   TEWEN  =     16467.41132908
  -Hartree energ DENC   =    -25285.96476014
  -exchange      EXHF   =         0.00000000
  -V(xc)+E(xc)   XCENC  =        66.59020515
  PAW double counting   =     11503.87051531   -11410.33102232
  entropy T*S    EENTRO =        -0.00000000
  eigenvalues    EBANDS =     -1871.83049452
  atomic energy  EATOM  =     10420.44326186
  Solvation  Ediel_sol  =         0.00000000
  ---------------------------------------------------
  free energy    TOTEN  =       -71.14889733 eV

  energy without entropy =      -71.14889733  energy(sigma->0) =      -71.14889733


--------------------------------------------------------------------------------------------------------




--------------------------------------- Iteration      1(   2)  ---------------------------------------


    POTLOK:  cpu time    0.1324: real time    0.3787
    SETDIJ:  cpu time    0.5616: real time    0.7167
atom =   1  type =  1  l = 2
 
 onsite density matrix
 
spin component  1
 
  0.7399 -0.2106 -0.0001 -0.0016  0.0001     -0.0000 -0.0001  0.0000  0.0043 -0.0072
 -0.2106  0.5731 -0.0001  0.0003 -0.0016      0.0001  0.0000  0.0000 -0.0059 -0.0043
 -0.0001 -0.0001  0.8827 -0.0004  0.0003     -0.0000 -0.0000 -0.0000  0.0000 -0.0000
 -0.0016  0.0003 -0.0004  0.5736  0.2109     -0.0043  0.0059 -0.0000 -0.0000 -0.0000
  0.0001 -0.0016  0.0003  0.2109  0.7394      0.0072  0.0043  0.0000  0.0000  0.0000
 
spin component  2
 
  0.0047  0.0056 -0.0000  0.0000  0.0000     -0.0004  0.0002  0.0075 -0.0057  0.0046
 -0.0029 -0.0050 -0.0000 -0.0000  0.0000      0.0002 -0.0003 -0.0049  0.0050 -0.0028
 -0.0000 -0.0000  0.0001 -0.0144 -0.0024     -0.0024  0.0144 -0.0005  0.0000 -0.0000
 -0.0000 -0.0001  0.0050  0.0051 -0.0028      0.0029  0.0050  0.0000 -0.0002 -0.0002
  0.0000  0.0000  0.0075  0.0057 -0.0045      0.0046  0.0057  0.0000 -0.0002 -0.0004
 
spin component  3
 
  0.0047 -0.0029 -0.0000 -0.0000  0.0000      0.0004 -0.0002  0.0024 -0.0029 -0.0046
  0.0056 -0.0050 -0.0000 -0.0001  0.0000     -0.0002  0.0003 -0.0144 -0.0050 -0.0057
 -0.0000 -0.0000  0.0001  0.0050  0.0075     -0.0075  0.0049  0.0005 -0.0000 -0.0000
  0.0000 -0.0000 -0.0144  0.0051  0.0057      0.0057 -0.0050 -0.0000  0.0002  0.0002
  0.0000  0.0000 -0.0024 -0.0028 -0.0045     -0.0046  0.0028  0.0000  0.0002  0.0004
 
spin component  4
 
  0.1134  0.0816 -0.0001  0.0009 -0.0002     -0.0000 -0.0000  0.0000  0.0031 -0.0075
  0.0816  0.1785  0.0002  0.0002  0.0003      0.0000  0.0000 -0.0000 -0.0101 -0.0031
 -0.0001  0.0002  0.0510  0.0002 -0.0000     -0.0000  0.0000 -0.0000 -0.0000 -0.0000
  0.0009  0.0002  0.0002  0.1780 -0.0815     -0.0031  0.0101  0.0000 -0.0000 -0.0000
 -0.0002  0.0003 -0.0000 -0.0815  0.1135      0.0075  0.0031  0.0000  0.0000 -0.0000
 
 occupancies and eigenvectors
 
  o =  0.0502  v =  0.0054  0.0299 -0.0003 -0.0020  0.0007 -0.0027  0.0014 -0.0489  0.0024  0.0007      0.0000  0.0010 -0.0001  0.0300 -0.0055  0.0224 -0.0160  0.9975 -0.0047 -0.0054
  o =  0.0558  v = -0.0206 -0.0288  0.0006 -0.0013  0.0010  0.5668 -0.4290 -0.0210 -0.0049 -0.0064      0.0000 -0.0005 -0.0001  0.0287 -0.0203  0.0399 -0.0239 -0.0051 -0.4243 -0.5564
  o =  0.0583  v =  0.0004  0.0010  0.0141 -0.0006  0.0001  0.2179 -0.1261 -0.0121 -0.3338 -0.5509      0.0000  0.0002 -0.0060 -0.0018  0.0005  0.5590 -0.3386 -0.0144  0.1591  0.2621
  o =  0.2323  v =  0.0006 -0.0015 -0.0002 -0.0008 -0.0005 -0.3681 -0.4903 -0.0000  0.3682 -0.2692      0.0000 -0.0014 -0.0000  0.0021  0.0003 -0.1666 -0.1981 -0.0007 -0.4700  0.3581
  o =  0.2359  v =  0.0003  0.0000  0.0008  0.0001 -0.0001 -0.1568 -0.2351 -0.0007 -0.5658  0.3396      0.0000 -0.0000 -0.0002 -0.0000  0.0003 -0.3579 -0.5909 -0.0003  0.0780 -0.0371
  o =  0.4285  v =  0.4020  0.5709  0.0002 -0.0517  0.0377  0.0273 -0.0222  0.0018 -0.0008 -0.0012      0.0000  0.0069 -0.0007 -0.5810  0.4102 -0.0009  0.0014  0.0003 -0.0226 -0.0271
  o =  0.4327  v = -0.3926 -0.5968 -0.0003 -0.0621  0.0396 -0.0004  0.0002  0.0024 -0.0007 -0.0017      0.0000  0.0068 -0.0007 -0.5803  0.3818 -0.0016  0.0007  0.0396  0.0002  0.0005
  o =  0.8824  v =  0.6115 -0.4020  0.0272  0.0050  0.0124  0.0004 -0.0003 -0.0001  0.0004  0.0006      0.0000  0.0026  0.0343 -0.3728 -0.5684  0.0001 -0.0001  0.0168  0.0002  0.0002
  o =  0.8829  v = -0.0323  0.0215  0.3204 -0.0129 -0.0186  0.0085 -0.0058 -0.0002  0.0020  0.0029      0.0000 -0.0009  0.9459  0.0090  0.0160 -0.0029  0.0019 -0.0003  0.0058  0.0085
  o =  0.8842  v = -0.5557  0.3924  0.0117  0.0128  0.0140 -0.0013 -0.0011 -0.0002  0.0003  0.0005      0.0000  0.0031 -0.0173 -0.4218 -0.5987 -0.0004  0.0003  0.0006 -0.0014  0.0009
atom =   2  type =  1  l = 2
 
 onsite density matrix
 
spin component  1
 
  0.7393 -0.2107  0.0004 -0.0014  0.0004      0.0000 -0.0001  0.0000  0.0043 -0.0072
 -0.2107  0.5738  0.0006  0.0007 -0.0013      0.0001  0.0000  0.0000 -0.0059 -0.0043
  0.0004  0.0006  0.8826  0.0002 -0.0001     -0.0000 -0.0000  0.0000  0.0000 -0.0000
 -0.0014  0.0007  0.0002  0.5733  0.2108     -0.0043  0.0059 -0.0000 -0.0000 -0.0000
  0.0004 -0.0013 -0.0001  0.2108  0.7396      0.0072  0.0043  0.0000  0.0000  0.0000
 
spin component  2
 
  0.0047  0.0056 -0.0000 -0.0000  0.0000     -0.0001  0.0001  0.0074 -0.0056  0.0046
 -0.0029 -0.0050 -0.0000 -0.0001  0.0000      0.0000 -0.0001 -0.0049  0.0050 -0.0029
 -0.0001 -0.0000  0.0001 -0.0144 -0.0024     -0.0023  0.0144 -0.0001  0.0000 -0.0000
  0.0000 -0.0000  0.0050  0.0051 -0.0028      0.0029  0.0051  0.0000 -0.0000 -0.0001
  0.0000  0.0000  0.0074  0.0057 -0.0046      0.0046  0.0057  0.0000 -0.0000 -0.0001
 
spin component  3
 
  0.0047 -0.0029 -0.0001  0.0000  0.0000      0.0001 -0.0000  0.0023 -0.0029 -0.0046
  0.0056 -0.0050 -0.0000 -0.0000  0.0000     -0.0001  0.0001 -0.0144 -0.0051 -0.0057
 -0.0000 -0.0000  0.0001  0.0050  0.0074     -0.0074  0.0049  0.0001 -0.0000 -0.0000
 -0.0000 -0.0001 -0.0144  0.0051  0.0057      0.0056 -0.0050 -0.0000  0.0000  0.0000
  0.0000  0.0000 -0.0024 -0.0028 -0.0046     -0.0046  0.0029  0.0000  0.0001  0.0001
 
spin component  4
 
  0.1138  0.0817 -0.0003  0.0009 -0.0003     -0.0000  0.0000  0.0000  0.0030 -0.0075
  0.0817  0.1785 -0.0002  0.0003  0.0001     -0.0000  0.0000 -0.0000 -0.0102 -0.0031
 -0.0003 -0.0002  0.0510 -0.0001  0.0001     -0.0000  0.0000  0.0000 -0.0000 -0.0000
  0.0009  0.0003 -0.0001  0.1782 -0.0814     -0.0030  0.0102  0.0000 -0.0000 -0.0001
 -0.0003  0.0001  0.0001 -0.0814  0.1135      0.0075  0.0031  0.0000  0.0001 -0.0000
 
 occupancies and eigenvectors
 
  o =  0.0502  v =  0.0054  0.0298  0.0001 -0.0009  0.0003 -0.0024  0.0008 -0.0180 -0.0008 -0.0034      0.0000  0.0002  0.0001  0.0301 -0.0056  0.0201 -0.0112  0.9986 -0.0057 -0.0097
  o =  0.0559  v =  0.0206  0.0289 -0.0004  0.0008 -0.0004 -0.5562  0.4238  0.0137  0.0066  0.0074      0.0000  0.0000 -0.0002 -0.0286  0.0204 -0.0241  0.0139  0.0072  0.4304  0.5676
  o =  0.0584  v =  0.0004  0.0002  0.0138  0.0001  0.0000 -0.2757  0.1706 -0.0000 -0.3303 -0.5484      0.0000  0.0002  0.0066 -0.0015  0.0006  0.5438 -0.3280 -0.0208 -0.1474 -0.2435
  o =  0.2323  v = -0.0005  0.0020  0.0002  0.0002  0.0000  0.3912  0.5076 -0.0010 -0.1789  0.1186      0.0000  0.0003 -0.0001 -0.0021 -0.0005 -0.0294 -0.0687 -0.0004  0.5868 -0.4398
  o =  0.2361  v = -0.0002  0.0003 -0.0008  0.0000  0.0000  0.1938  0.2851 -0.0011  0.5520 -0.3304      0.0000  0.0001  0.0002 -0.0003 -0.0002  0.3546  0.5824 -0.0012 -0.0466  0.0111
  o =  0.4285  v =  0.3934  0.5563 -0.0011 -0.0774  0.0541  0.0272 -0.0223  0.0027 -0.0014 -0.0017      0.0000  0.0082  0.0003 -0.5921  0.4167 -0.0015  0.0017  0.0011 -0.0224 -0.0271
  o =  0.4328  v = -0.4029 -0.6093  0.0013 -0.0840  0.0554 -0.0011  0.0009  0.0031 -0.0015 -0.0019      0.0000  0.0078  0.0003 -0.5639  0.3697 -0.0019  0.0015  0.0394  0.0009  0.0011
  o =  0.8824  v =  0.6065 -0.3998 -0.0572 -0.0215 -0.0262  0.0000  0.0000  0.0004 -0.0003 -0.0004      0.0000  0.0008 -0.0029 -0.3747 -0.5720  0.0006 -0.0003  0.0167 -0.0000 -0.0001
  o =  0.8828  v = -0.0332  0.0198 -0.9932 -0.0015 -0.0016 -0.0009  0.0007 -0.0000 -0.0061 -0.0089      0.0000 -0.0003 -0.1002  0.0234  0.0357  0.0089 -0.0060 -0.0011 -0.0006 -0.0009
  o =  0.8841  v = -0.5599  0.3964 -0.0048 -0.0170 -0.0301 -0.0011 -0.0012  0.0005  0.0000  0.0001      0.0000  0.0011  0.0027 -0.4183 -0.5943 -0.0000  0.0001  0.0005 -0.0013  0.0011
atom =   3  type =  1  l = 2
 
 onsite density matrix
 
spin component  1
 
  0.7399 -0.2106 -0.0008  0.0009 -0.0004     -0.0000  0.0000  0.0000  0.0043 -0.0071
 -0.2106  0.5728 -0.0011 -0.0006  0.0007     -0.0000 -0.0000 -0.0000 -0.0059 -0.0044
 -0.0008 -0.0011  0.8825 -0.0010  0.0008     -0.0000  0.0000  0.0000 -0.0000 -0.0000
  0.0009 -0.0006 -0.0010  0.5738  0.2108     -0.0043  0.0059  0.0000  0.0000 -0.0000
 -0.0004  0.0007  0.0008  0.2108  0.7392      0.0071  0.0044  0.0000  0.0000 -0.0000
 
spin component  2
 
  0.0042  0.0059 -0.0000  0.0000 -0.0000      0.0000 -0.0000  0.0075 -0.0056  0.0046
 -0.0026 -0.0053 -0.0000  0.0001  0.0000      0.0000 -0.0000 -0.0049  0.0051 -0.0029
  0.0000 -0.0001 -0.0006 -0.0144 -0.0024     -0.0024  0.0144  0.0001 -0.0000 -0.0000
  0.0000  0.0000  0.0050  0.0048 -0.0031      0.0029  0.0050  0.0000 -0.0000  0.0000
  0.0000  0.0000  0.0075  0.0054 -0.0051      0.0046  0.0057 -0.0000  0.0000  0.0000
 
spin component  3
 
  0.0042 -0.0026  0.0000  0.0000  0.0000     -0.0000 -0.0000  0.0024 -0.0029 -0.0046
  0.0059 -0.0053 -0.0001  0.0000  0.0000      0.0000  0.0000 -0.0144 -0.0050 -0.0057
 -0.0000 -0.0000 -0.0006  0.0050  0.0075     -0.0075  0.0049 -0.0001 -0.0000  0.0000
  0.0000  0.0001 -0.0144  0.0048  0.0054      0.0056 -0.0051  0.0000  0.0000 -0.0000
 -0.0000  0.0000 -0.0024 -0.0031 -0.0051     -0.0046  0.0029  0.0000 -0.0000 -0.0000
 
spin component  4
 
  0.1136  0.0817  0.0003 -0.0003  0.0002     -0.0000  0.0000  0.0000  0.0031 -0.0075
  0.0817  0.1790  0.0005  0.0001 -0.0003     -0.0000 -0.0000 -0.0000 -0.0101 -0.0031
  0.0003  0.0005  0.0512  0.0004 -0.0004     -0.0000  0.0000 -0.0000 -0.0000 -0.0000
 -0.0003  0.0001  0.0004  0.1787 -0.0817     -0.0031  0.0101  0.0000  0.0000  0.0000
  0.0002 -0.0003 -0.0004 -0.0817  0.1140      0.0075  0.0031  0.0000 -0.0000 -0.0000
 
 occupancies and eigenvectors
 
  o =  0.0504  v =  0.0057  0.0303  0.0001 -0.0009  0.0002 -0.0032  0.0030 -0.0253  0.0006  0.0003      0.0000  0.0008  0.0007  0.0297 -0.0053  0.0028 -0.0056  0.9987  0.0041  0.0106
  o =  0.0561  v = -0.0199 -0.0287  0.0006 -0.0001 -0.0000  0.5814 -0.4377 -0.0045 -0.0144 -0.0277      0.0000  0.0002 -0.0004  0.0288 -0.0210  0.0263 -0.0166  0.0104 -0.4149 -0.5418
  o =  0.0586  v =  0.0014  0.0012  0.0102 -0.0005 -0.0000  0.4229 -0.2506  0.0010 -0.2360 -0.3942      0.0000 -0.0006 -0.0115 -0.0016  0.0016  0.4071 -0.2459 -0.0065  0.2977  0.4817
  o =  0.2331  v =  0.0003 -0.0024 -0.0000  0.0002 -0.0001 -0.4207 -0.5530 -0.0021  0.0015 -0.0001      0.0000 -0.0000  0.0000  0.0019  0.0008  0.0041  0.0026 -0.0020 -0.5731  0.4344
  o =  0.2365  v =  0.0004  0.0007 -0.0001 -0.0000  0.0000  0.3687  0.6094  0.0024  0.0865 -0.0531      0.0000 -0.0000  0.0008 -0.0006  0.0003  0.0526  0.0841 -0.0016 -0.5889  0.3546
  o =  0.4284  v =  0.4186  0.5964  0.0023  0.0472 -0.0327  0.0268 -0.0230 -0.0018  0.0010  0.0012      0.0000 -0.0052 -0.0019 -0.5553  0.3934  0.0008 -0.0010 -0.0014 -0.0219 -0.0277
  o =  0.4326  v = -0.3746 -0.5715 -0.0018  0.0586 -0.0393  0.0010 -0.0004 -0.0021  0.0011  0.0012      0.0000 -0.0057 -0.0020 -0.6055  0.3998  0.0011 -0.0013  0.0396 -0.0005 -0.0010
  o =  0.8823  v =  0.5934 -0.3901  0.1562 -0.0164 -0.0270  0.0005 -0.0003  0.0003  0.0010  0.0014      0.0000 -0.0015  0.1003 -0.3726 -0.5666 -0.0014  0.0009  0.0165  0.0008  0.0013
  o =  0.8827  v = -0.1081  0.0686  0.6327 -0.0445 -0.0614  0.0068 -0.0046  0.0004  0.0038  0.0058      0.0000 -0.0041  0.7493  0.0676  0.1065 -0.0057  0.0039 -0.0036  0.0045  0.0067
  o =  0.8841  v = -0.5658  0.3987  0.0459 -0.0126 -0.0147 -0.0011 -0.0013  0.0002  0.0002  0.0004      0.0000 -0.0008 -0.0380 -0.4145 -0.5875 -0.0004  0.0003  0.0003 -0.0012  0.0012
atom =   4  type =  1  l = 2
 
 onsite density matrix
 
spin component  1
 
  0.7398 -0.2106  0.0001  0.0011  0.0003     -0.0000  0.0000  0.0000  0.0043 -0.0072
 -0.2106  0.5732  0.0001  0.0005  0.0013     -0.0000 -0.0000 -0.0000 -0.0059 -0.0043
  0.0001  0.0001  0.8826 -0.0005  0.0004     -0.0000  0.0000 -0.0000  0.0000 -0.0000
  0.0011  0.0005 -0.0005  0.5736  0.2109     -0.0043  0.0059 -0.0000  0.0000 -0.0000
  0.0003  0.0013  0.0004  0.2109  0.7393      0.0072  0.0043  0.0000  0.0000  0.0000
 
spin component  2
 
  0.0044  0.0058 -0.0000  0.0000 -0.0000     -0.0002  0.0001  0.0075 -0.0056  0.0046
 -0.0027 -0.0052  0.0000  0.0001 -0.0000      0.0001 -0.0001 -0.0049  0.0051 -0.0029
  0.0000 -0.0000 -0.0003 -0.0144 -0.0024     -0.0024  0.0144 -0.0002 -0.0000 -0.0001
  0.0000  0.0000  0.0050  0.0049 -0.0030      0.0029  0.0050  0.0000 -0.0001 -0.0001
 -0.0000  0.0000  0.0075  0.0055 -0.0049      0.0046  0.0057 -0.0000 -0.0001 -0.0002
 
spin component  3
 
  0.0044 -0.0027  0.0000  0.0000 -0.0000      0.0002 -0.0001  0.0024 -0.0029 -0.0046
  0.0058 -0.0052 -0.0000  0.0000  0.0000     -0.0001  0.0001 -0.0144 -0.0050 -0.0057
 -0.0000  0.0000 -0.0003  0.0050  0.0075     -0.0075  0.0049  0.0002 -0.0000  0.0000
  0.0000  0.0001 -0.0144  0.0049  0.0055      0.0056 -0.0051  0.0000  0.0001  0.0001
 -0.0000 -0.0000 -0.0024 -0.0030 -0.0049     -0.0046  0.0029  0.0001  0.0001  0.0002
 
spin component  4
 
  0.1136  0.0818 -0.0001 -0.0001 -0.0002     -0.0000  0.0000  0.0000  0.0030 -0.0075
  0.0818  0.1788  0.0001  0.0001 -0.0008     -0.0000  0.0000 -0.0000 -0.0102 -0.0031
 -0.0001  0.0001  0.0511  0.0002 -0.0001     -0.0000  0.0000 -0.0000  0.0000 -0.0000
 -0.0001  0.0001  0.0002  0.1782 -0.0815     -0.0030  0.0102 -0.0000  0.0000 -0.0000
 -0.0002 -0.0008 -0.0001 -0.0815  0.1137      0.0075  0.0031  0.0000  0.0000 -0.0000
 
 occupancies and eigenvectors
 
  o =  0.0503  v =  0.0055  0.0300 -0.0002 -0.0019  0.0004 -0.0028  0.0018 -0.0500  0.0010 -0.0003      0.0000  0.0012  0.0005  0.0299 -0.0055  0.0133 -0.0090  0.9977 -0.0014 -0.0001
  o =  0.0558  v =  0.0202  0.0289 -0.0009  0.0005 -0.0005 -0.5823  0.4389  0.0122  0.0160  0.0304      0.0000  0.0001  0.0005 -0.0286  0.0207 -0.0420  0.0294 -0.0004  0.4134  0.5394
  o =  0.0584  v = -0.0014 -0.0018 -0.0110  0.0008  0.0000 -0.3797  0.2253  0.0088  0.2555  0.4259      0.0000  0.0004  0.0106  0.0021 -0.0015 -0.4445  0.2675  0.0068 -0.2833 -0.4568
  o =  0.2326  v = -0.0004  0.0021  0.0002  0.0000  0.0004  0.3889  0.5043 -0.0003 -0.2228  0.1516      0.0000  0.0006 -0.0001 -0.0020 -0.0006  0.0363  0.0301  0.0010  0.5763 -0.4330
  o =  0.2363  v = -0.0002 -0.0003 -0.0006  0.0004  0.0001 -0.2439 -0.4075  0.0005  0.3249 -0.1800      0.0000  0.0005 -0.0005  0.0002 -0.0002  0.3230  0.5121  0.0006  0.4421 -0.2728
  o =  0.4285  v =  0.4011  0.5685 -0.0003 -0.0408  0.0249  0.0270 -0.0227  0.0013 -0.0005 -0.0011      0.0000 -0.0008 -0.0009 -0.5842  0.4122 -0.0010  0.0007  0.0005 -0.0222 -0.0275
  o =  0.4327  v = -0.3940 -0.5989  0.0002 -0.0358  0.0275 -0.0003  0.0005  0.0012 -0.0005 -0.0012      0.0000 -0.0008 -0.0009 -0.5803  0.3817 -0.0010  0.0004  0.0397  0.0004  0.0003
  o =  0.8824  v = -0.5945  0.3902 -0.0242 -0.0049 -0.0051  0.0000 -0.0000  0.0001 -0.0003 -0.0004      0.0000  0.0028 -0.0256  0.3856  0.5865  0.0000 -0.0000 -0.0168 -0.0003 -0.0005
  o =  0.8828  v = -0.0261  0.0175  0.0235 -0.0191 -0.0279  0.0090 -0.0061  0.0001  0.0001  0.0002      0.0000 -0.0002  0.9985  0.0013  0.0052 -0.0002  0.0002 -0.0008  0.0061  0.0090
  o =  0.8841  v =  0.5739 -0.4047 -0.0236 -0.0020 -0.0051  0.0011  0.0013  0.0001 -0.0003 -0.0004      0.0000  0.0029  0.0189  0.4102  0.5811  0.0004 -0.0003 -0.0001  0.0012 -0.0012
     EDDAV:  cpu time  154.1770: real time  156.9653
       DOS:  cpu time    0.0038: real time    0.1705
    CHARGE:  cpu time   11.7153: real time   12.0410
    MIXING:  cpu time    0.0210: real time    0.3255
    --------------------------------------------
      LOOP:  cpu time  166.6110: real time  170.5968

 eigenvalue-minimisations  : 18048
 total energy-change (2. order) : 0.2694287E-07  (-0.3625178E-07)
 number of electron     132.0000006 magnetization      -0.0052988      0.0062629     12.0359465
 augmentation part        3.5830359 magnetization      -0.0032846      0.0039103      7.4843665

 Broyden mixing:
  rms(total) = 0.19596E-03    rms(broyden)= 0.19595E-03
  rms(prec ) = 0.21432E-03
  weight for this iteration     100.00

 eigenvalues of (default mixing * dielectric matrix)
  average eigenvalue GAMMA=   0.5010
  0.5010

 Free energy of the ion-electron system (eV)
  ---------------------------------------------------
  alpha Z        PSCENC =        38.66206825
  Ewald energy   TEWEN  =     16467.41132908
  -Hartree energ DENC   =    -25285.96656508
  -exchange      EXHF   =         0.00000000
  -V(xc)+E(xc)   XCENC  =        66.59023256
  PAW double counting   =     11503.87115870   -11410.33169714
  entropy T*S    EENTRO =        -0.00000000
  eigenvalues    EBANDS =     -1871.82868553
  atomic energy  EATOM  =     10420.44326186
  Solvation  Ediel_sol  =         0.00000000
  ---------------------------------------------------
  free energy    TOTEN  =       -71.14889730 eV

  energy without entropy =      -71.14889730  energy(sigma->0) =      -71.14889730


--------------------------------------------------------------------------------------------------------




--------------------------------------- Iteration      1(   3)  ---------------------------------------


    POTLOK:  cpu time    0.3631: real time    0.4614
    SETDIJ:  cpu time    0.6368: real time    0.6642
atom =   1  type =  1  l = 2
 
 onsite density matrix
 
spin component  1
 
  0.7399 -0.2106 -0.0001 -0.0016  0.0001     -0.0000 -0.0001  0.0000  0.0043 -0.0072
 -0.2106  0.5731 -0.0001  0.0003 -0.0016      0.0001  0.0000  0.0000 -0.0059 -0.0043
 -0.0001 -0.0001  0.8827 -0.0004  0.0003     -0.0000 -0.0000 -0.0000  0.0000 -0.0000
 -0.0016  0.0003 -0.0004  0.5736  0.2109     -0.0043  0.0059 -0.0000 -0.0000 -0.0000
  0.0001 -0.0016  0.0003  0.2109  0.7394      0.0072  0.0043  0.0000  0.0000  0.0000
 
spin component  2
 
  0.0047  0.0056 -0.0000  0.0000  0.0000     -0.0004  0.0002  0.0075 -0.0057  0.0046
 -0.0029 -0.0050 -0.0000 -0.0000  0.0000      0.0002 -0.0003 -0.0049  0.0050 -0.0028
 -0.0000 -0.0000  0.0001 -0.0144 -0.0024     -0.0024  0.0144 -0.0005  0.0000 -0.0000
 -0.0000 -0.0001  0.0050  0.0051 -0.0028      0.0029  0.0050  0.0000 -0.0002 -0.0002
  0.0000  0.0000  0.0075  0.0057 -0.0045      0.0046  0.0057  0.0000 -0.0002 -0.0004
 
spin component  3
 
  0.0047 -0.0029 -0.0000 -0.0000  0.0000      0.0004 -0.0002  0.0024 -0.0029 -0.0046
  0.0056 -0.0050 -0.0000 -0.0001  0.0000     -0.0002  0.0003 -0.0144 -0.0050 -0.0057
 -0.0000 -0.0000  0.0001  0.0050  0.0075     -0.0075  0.0049  0.0005 -0.0000 -0.0000
  0.0000 -0.0000 -0.0144  0.0051  0.0057      0.0057 -0.0050 -0.0000  0.0002  0.0002
  0.0000  0.0000 -0.0024 -0.0028 -0.0045     -0.0046  0.0028  0.0000  0.0002  0.0004
 
spin component  4
 
  0.1134  0.0816 -0.0001  0.0009 -0.0002     -0.0000 -0.0000  0.0000  0.0031 -0.0075
  0.0816  0.1785  0.0002  0.0002  0.0003      0.0000  0.0000 -0.0000 -0.0101 -0.0031
 -0.0001  0.0002  0.0510  0.0002 -0.0000     -0.0000  0.0000 -0.0000 -0.0000 -0.0000
  0.0009  0.0002  0.0002  0.1780 -0.0815     -0.0031  0.0101  0.0000 -0.0000 -0.0000
 -0.0002  0.0003 -0.0000 -0.0815  0.1135      0.0075  0.0031  0.0000  0.0000  0.0000
 
 occupancies and eigenvectors
 
  o =  0.0502  v =  0.0054  0.0299 -0.0003 -0.0020  0.0007 -0.0027  0.0014 -0.0489  0.0024  0.0007      0.0000  0.0010 -0.0001  0.0300 -0.0055  0.0224 -0.0160  0.9975 -0.0047 -0.0054
  o =  0.0558  v = -0.0206 -0.0288  0.0006 -0.0013  0.0010  0.5668 -0.4290 -0.0210 -0.0048 -0.0064      0.0000 -0.0005 -0.0001  0.0287 -0.0203  0.0399 -0.0239 -0.0051 -0.4242 -0.5564
  o =  0.0583  v =  0.0004  0.0010  0.0141 -0.0006  0.0001  0.2190 -0.1267 -0.0122 -0.3335 -0.5504      0.0000  0.0002 -0.0061 -0.0018  0.0005  0.5585 -0.3384 -0.0144  0.1598  0.2631
  o =  0.2323  v =  0.0006 -0.0015 -0.0002 -0.0008 -0.0005 -0.3680 -0.4903 -0.0000  0.3684 -0.2694      0.0000 -0.0014 -0.0000  0.0021  0.0003 -0.1667 -0.1983 -0.0007 -0.4698  0.3579
  o =  0.2359  v =  0.0003  0.0000  0.0008  0.0001 -0.0001 -0.1566 -0.2347 -0.0007 -0.5659  0.3396      0.0000 -0.0000 -0.0002 -0.0000  0.0003 -0.3580 -0.5910 -0.0003  0.0776 -0.0369
  o =  0.4285  v =  0.4020  0.5709  0.0002 -0.0517  0.0377  0.0273 -0.0222  0.0018 -0.0008 -0.0012      0.0000  0.0069 -0.0007 -0.5810  0.4102 -0.0009  0.0014  0.0003 -0.0226 -0.0271
  o =  0.4327  v = -0.3926 -0.5968 -0.0003 -0.0621  0.0396 -0.0004  0.0002  0.0024 -0.0007 -0.0017      0.0000  0.0068 -0.0007 -0.5803  0.3818 -0.0016  0.0007  0.0396  0.0002  0.0005
  o =  0.8824  v =  0.6115 -0.4020  0.0272  0.0050  0.0124  0.0004 -0.0003 -0.0001  0.0004  0.0006      0.0000  0.0026  0.0341 -0.3728 -0.5685  0.0001 -0.0001  0.0168  0.0002  0.0002
  o =  0.8829  v = -0.0321  0.0214  0.3211 -0.0129 -0.0185  0.0085 -0.0058 -0.0002  0.0020  0.0029      0.0000 -0.0009  0.9457  0.0089  0.0160 -0.0029  0.0019 -0.0003  0.0058  0.0085
  o =  0.8842  v = -0.5558  0.3924  0.0117  0.0128  0.0140 -0.0013 -0.0011 -0.0002  0.0003  0.0005      0.0000  0.0031 -0.0172 -0.4218 -0.5987 -0.0004  0.0003  0.0006 -0.0014  0.0009
atom =   2  type =  1  l = 2
 
 onsite density matrix
 
spin component  1
 
  0.7393 -0.2107  0.0004 -0.0014  0.0004     -0.0000 -0.0001  0.0000  0.0043 -0.0072
 -0.2107  0.5738  0.0006  0.0007 -0.0013      0.0001  0.0000  0.0000 -0.0059 -0.0043
  0.0004  0.0006  0.8826  0.0002 -0.0001     -0.0000 -0.0000  0.0000  0.0000 -0.0000
 -0.0014  0.0007  0.0002  0.5733  0.2108     -0.0043  0.0059 -0.0000 -0.0000 -0.0000
  0.0004 -0.0013 -0.0001  0.2108  0.7396      0.0072  0.0043  0.0000  0.0000  0.0000
 
spin component  2
 
  0.0047  0.0056 -0.0000 -0.0000  0.0000     -0.0001  0.0001  0.0074 -0.0056  0.0046
 -0.0029 -0.0050 -0.0000 -0.0001  0.0000      0.0000 -0.0001 -0.0049  0.0050 -0.0029
 -0.0001 -0.0000  0.0001 -0.0144 -0.0024     -0.0023  0.0144 -0.0001  0.0000 -0.0000
  0.0000 -0.0000  0.0050  0.0051 -0.0028      0.0029  0.0051  0.0000 -0.0000 -0.0001
  0.0000  0.0000  0.0074  0.0057 -0.0046      0.0046  0.0057  0.0000 -0.0000 -0.0001
 
spin component  3
 
  0.0047 -0.0029 -0.0001  0.0000  0.0000      0.0001 -0.0000  0.0023 -0.0029 -0.0046
  0.0056 -0.0050 -0.0000 -0.0000  0.0000     -0.0001  0.0001 -0.0144 -0.0051 -0.0057
 -0.0000 -0.0000  0.0001  0.0050  0.0074     -0.0074  0.0049  0.0001 -0.0000 -0.0000
 -0.0000 -0.0001 -0.0144  0.0051  0.0057      0.0056 -0.0050 -0.0000  0.0000  0.0000
  0.0000  0.0000 -0.0024 -0.0028 -0.0046     -0.0046  0.0029  0.0000  0.0001  0.0001
 
spin component  4
 
  0.1138  0.0817 -0.0003  0.0009 -0.0003     -0.0000  0.0000  0.0000  0.0030 -0.0075
  0.0817  0.1785 -0.0002  0.0003  0.0001     -0.0000  0.0000 -0.0000 -0.0102 -0.0031
 -0.0003 -0.0002  0.0510 -0.0001  0.0001     -0.0000  0.0000  0.0000 -0.0000 -0.0000
  0.0009  0.0003 -0.0001  0.1782 -0.0814     -0.0030  0.0102  0.0000 -0.0000 -0.0001
 -0.0003  0.0001  0.0001 -0.0814  0.1135      0.0075  0.0031  0.0000  0.0001 -0.0000
 
 occupancies and eigenvectors
 
  o =  0.0502  v =  0.0054  0.0298  0.0001 -0.0009  0.0003 -0.0024  0.0008 -0.0180 -0.0008 -0.0034      0.0000  0.0002  0.0001  0.0301 -0.0056  0.0201 -0.0112  0.9986 -0.0057 -0.0097
  o =  0.0559  v =  0.0206  0.0289 -0.0004  0.0008 -0.0004 -0.5562  0.4238  0.0137  0.0066  0.0073      0.0000  0.0000 -0.0002 -0.0286  0.0204 -0.0241  0.0139  0.0072  0.4305  0.5676
  o =  0.0584  v =  0.0004  0.0002  0.0138  0.0002  0.0000 -0.2760  0.1708  0.0000 -0.3303 -0.5483      0.0000  0.0002  0.0066 -0.0015  0.0006  0.5436 -0.3279 -0.0208 -0.1476 -0.2438
  o =  0.2323  v = -0.0005  0.0020  0.0002  0.0002  0.0000  0.3911  0.5075 -0.0010 -0.1789  0.1186      0.0000  0.0003 -0.0001 -0.0021 -0.0005 -0.0294 -0.0687 -0.0004  0.5868 -0.4398
  o =  0.2361  v = -0.0002  0.0003 -0.0008  0.0000  0.0000  0.1935  0.2846 -0.0011  0.5521 -0.3304      0.0000  0.0001  0.0002 -0.0003 -0.0002  0.3548  0.5827 -0.0012 -0.0460  0.0107
  o =  0.4285  v =  0.3934  0.5563 -0.0011 -0.0773  0.0541  0.0272 -0.0223  0.0027 -0.0014 -0.0017      0.0000  0.0082  0.0003 -0.5921  0.4167 -0.0015  0.0017  0.0011 -0.0224 -0.0271
  o =  0.4328  v = -0.4029 -0.6093  0.0013 -0.0840  0.0554 -0.0011  0.0009  0.0031 -0.0015 -0.0019      0.0000  0.0078  0.0003 -0.5639  0.3697 -0.0019  0.0015  0.0394  0.0009  0.0011
  o =  0.8824  v =  0.6065 -0.3999 -0.0572 -0.0215 -0.0262  0.0000  0.0000  0.0004 -0.0003 -0.0004      0.0000  0.0008 -0.0028 -0.3747 -0.5720  0.0006 -0.0003  0.0167 -0.0000 -0.0001
  o =  0.8828  v = -0.0332  0.0197 -0.9935 -0.0014 -0.0016 -0.0009  0.0006 -0.0000 -0.0061 -0.0089      0.0000 -0.0003 -0.0967  0.0234  0.0356  0.0089 -0.0060 -0.0011 -0.0006 -0.0008
  o =  0.8841  v = -0.5599  0.3964 -0.0048 -0.0170 -0.0301 -0.0011 -0.0012  0.0005  0.0000  0.0001      0.0000  0.0011  0.0027 -0.4183 -0.5943 -0.0000  0.0001  0.0005 -0.0013  0.0011
atom =   3  type =  1  l = 2
 
 onsite density matrix
 
spin component  1
 
  0.7399 -0.2106 -0.0008  0.0009 -0.0004     -0.0000  0.0000  0.0000  0.0043 -0.0071
 -0.2106  0.5728 -0.0011 -0.0006  0.0007     -0.0000 -0.0000 -0.0000 -0.0059 -0.0044
 -0.0008 -0.0011  0.8825 -0.0010  0.0008     -0.0000  0.0000  0.0000 -0.0000 -0.0000
  0.0009 -0.0006 -0.0010  0.5738  0.2108     -0.0043  0.0059  0.0000  0.0000 -0.0000
 -0.0004  0.0007  0.0008  0.2108  0.7392      0.0071  0.0044  0.0000  0.0000 -0.0000
 
spin component  2
 
  0.0042  0.0059 -0.0000  0.0000 -0.0000      0.0000 -0.0000  0.0075 -0.0056  0.0046
 -0.0026 -0.0053 -0.0000  0.0001  0.0000      0.0000 -0.0000 -0.0049  0.0051 -0.0029
  0.0000 -0.0001 -0.0006 -0.0144 -0.0024     -0.0024  0.0144  0.0001 -0.0000 -0.0000
  0.0000  0.0000  0.0050  0.0048 -0.0031      0.0029  0.0050  0.0000 -0.0000  0.0000
  0.0000  0.0000  0.0075  0.0054 -0.0051      0.0046  0.0057 -0.0000  0.0000  0.0000
 
spin component  3
 
  0.0042 -0.0026  0.0000  0.0000  0.0000     -0.0000 -0.0000  0.0024 -0.0029 -0.0046
  0.0059 -0.0053 -0.0001  0.0000  0.0000      0.0000  0.0000 -0.0144 -0.0050 -0.0057
 -0.0000 -0.0000 -0.0006  0.0050  0.0075     -0.0075  0.0049 -0.0001 -0.0000  0.0000
  0.0000  0.0001 -0.0144  0.0048  0.0054      0.0056 -0.0051  0.0000  0.0000 -0.0000
 -0.0000  0.0000 -0.0024 -0.0031 -0.0051     -0.0046  0.0029  0.0000 -0.0000 -0.0000
 
spin component  4
 
  0.1136  0.0817  0.0003 -0.0003  0.0002     -0.0000  0.0000  0.0000  0.0031 -0.0075
  0.0817  0.1790  0.0005  0.0001 -0.0003     -0.0000 -0.0000 -0.0000 -0.0101 -0.0031
  0.0003  0.0005  0.0512  0.0004 -0.0004     -0.0000  0.0000 -0.0000 -0.0000 -0.0000
 -0.0003  0.0001  0.0004  0.1787 -0.0817     -0.0031  0.0101  0.0000  0.0000  0.0000
  0.0002 -0.0003 -0.0004 -0.0817  0.1140      0.0075  0.0031  0.0000 -0.0000  0.0000
 
 occupancies and eigenvectors
 
  o =  0.0504  v =  0.0057  0.0303  0.0001 -0.0009  0.0002 -0.0032  0.0030 -0.0253  0.0006  0.0003      0.0000  0.0008  0.0007  0.0297 -0.0053  0.0028 -0.0056  0.9987  0.0041  0.0106
[...]
     0.0000000     0.0000000     0.0000000     0.0000000     0.0000000     0.0000000     0.0000000
     0.0000000     0.0000000     0.0000000     0.0000000     0.0000000     0.0000000     0.0000000
     0.0000000     0.0000000     0.0000000     0.0000000     0.0000000     0.0000000     0.0000000
     0.0000000     0.0000000     0.0000000     0.0000000     0.0000000     0.0000000     0.0000000
     0.0000000     0.0000000     0.0000000     0.0000000     0.0000000     0.0000000     0.0000000
     0.0000000     0.0000000     0.0000000     0.0000000     0.0000000     0.0000000     0.0000000

 Ion:    5  E_soc:     -0.2845009
 l=   1
     0.0000000    -0.0460306    -0.0480444
    -0.0460306     0.0000000    -0.0480182
    -0.0480444    -0.0480182     0.0000000
 l=   2
     0.0000000    -0.0000090     0.0000000    -0.0000035    -0.0000541
    -0.0000090     0.0000000    -0.0000296    -0.0000013    -0.0000328
     0.0000000    -0.0000296     0.0000000    -0.0000248     0.0000000
    -0.0000035    -0.0000013    -0.0000248     0.0000000    -0.0000021
    -0.0000541    -0.0000328     0.0000000    -0.0000021     0.0000000
 l=   3
     0.0000000     0.0000000     0.0000000     0.0000000     0.0000000     0.0000000     0.0000000
     0.0000000     0.0000000     0.0000000     0.0000000     0.0000000     0.0000000     0.0000000
     0.0000000     0.0000000     0.0000000     0.0000000     0.0000000     0.0000000     0.0000000
     0.0000000     0.0000000     0.0000000     0.0000000     0.0000000     0.0000000     0.0000000
     0.0000000     0.0000000     0.0000000     0.0000000     0.0000000     0.0000000     0.0000000
     0.0000000     0.0000000     0.0000000     0.0000000     0.0000000     0.0000000     0.0000000
     0.0000000     0.0000000     0.0000000     0.0000000     0.0000000     0.0000000     0.0000000

 Ion:    6  E_soc:     -0.2844257
 l=   1
     0.0000000    -0.0460150    -0.0480308
    -0.0460150     0.0000000    -0.0480101
    -0.0480308    -0.0480101     0.0000000
 l=   2
     0.0000000    -0.0000090     0.0000000    -0.0000035    -0.0000540
    -0.0000090     0.0000000    -0.0000295    -0.0000013    -0.0000329
     0.0000000    -0.0000295     0.0000000    -0.0000247     0.0000000
    -0.0000035    -0.0000013    -0.0000247     0.0000000    -0.0000021
    -0.0000540    -0.0000329     0.0000000    -0.0000021     0.0000000
 l=   3
     0.0000000     0.0000000     0.0000000     0.0000000     0.0000000     0.0000000     0.0000000
     0.0000000     0.0000000     0.0000000     0.0000000     0.0000000     0.0000000     0.0000000
     0.0000000     0.0000000     0.0000000     0.0000000     0.0000000     0.0000000     0.0000000
     0.0000000     0.0000000     0.0000000     0.0000000     0.0000000     0.0000000     0.0000000
     0.0000000     0.0000000     0.0000000     0.0000000     0.0000000     0.0000000     0.0000000
     0.0000000     0.0000000     0.0000000     0.0000000     0.0000000     0.0000000     0.0000000
     0.0000000     0.0000000     0.0000000     0.0000000     0.0000000     0.0000000     0.0000000

 Ion:    7  E_soc:     -0.2844763
 l=   1
     0.0000000    -0.0475162    -0.0480056
    -0.0475162     0.0000000    -0.0465578
    -0.0480056    -0.0465578     0.0000000
 l=   2
     0.0000000    -0.0000134     0.0000000    -0.0000162    -0.0000544
    -0.0000134     0.0000000    -0.0000260    -0.0000015    -0.0000014
     0.0000000    -0.0000260     0.0000000    -0.0000289     0.0000000
    -0.0000162    -0.0000015    -0.0000289     0.0000000    -0.0000167
    -0.0000544    -0.0000014     0.0000000    -0.0000167     0.0000000
 l=   3
     0.0000000     0.0000000     0.0000000     0.0000000     0.0000000     0.0000000     0.0000000
     0.0000000     0.0000000     0.0000000     0.0000000     0.0000000     0.0000000     0.0000000
     0.0000000     0.0000000     0.0000000     0.0000000     0.0000000     0.0000000     0.0000000
     0.0000000     0.0000000     0.0000000     0.0000000     0.0000000     0.0000000     0.0000000
     0.0000000     0.0000000     0.0000000     0.0000000     0.0000000     0.0000000     0.0000000
     0.0000000     0.0000000     0.0000000     0.0000000     0.0000000     0.0000000     0.0000000
     0.0000000     0.0000000     0.0000000     0.0000000     0.0000000     0.0000000     0.0000000

 Ion:    8  E_soc:     -0.2843458
 l=   1
     0.0000000    -0.0474936    -0.0479817
    -0.0474936     0.0000000    -0.0465380
    -0.0479817    -0.0465380     0.0000000
 l=   2
     0.0000000    -0.0000135     0.0000000    -0.0000163    -0.0000547
    -0.0000135     0.0000000    -0.0000263    -0.0000015    -0.0000015
     0.0000000    -0.0000263     0.0000000    -0.0000291     0.0000000
    -0.0000163    -0.0000015    -0.0000291     0.0000000    -0.0000168
    -0.0000547    -0.0000015     0.0000000    -0.0000168     0.0000000
 l=   3
     0.0000000     0.0000000     0.0000000     0.0000000     0.0000000     0.0000000     0.0000000
     0.0000000     0.0000000     0.0000000     0.0000000     0.0000000     0.0000000     0.0000000
     0.0000000     0.0000000     0.0000000     0.0000000     0.0000000     0.0000000     0.0000000
     0.0000000     0.0000000     0.0000000     0.0000000     0.0000000     0.0000000     0.0000000
     0.0000000     0.0000000     0.0000000     0.0000000     0.0000000     0.0000000     0.0000000
     0.0000000     0.0000000     0.0000000     0.0000000     0.0000000     0.0000000     0.0000000
     0.0000000     0.0000000     0.0000000     0.0000000     0.0000000     0.0000000     0.0000000

 Ion:    9  E_soc:     -0.2846100
 l=   1
     0.0000000    -0.0475524    -0.0480425
    -0.0475524     0.0000000    -0.0465519
    -0.0480425    -0.0465519     0.0000000
 l=   2
     0.0000000    -0.0000133     0.0000000    -0.0000161    -0.0000543
    -0.0000133     0.0000000    -0.0000262    -0.0000015    -0.0000016
     0.0000000    -0.0000262     0.0000000    -0.0000286     0.0000000
    -0.0000161    -0.0000015    -0.0000286     0.0000000    -0.0000167
    -0.0000543    -0.0000016     0.0000000    -0.0000167     0.0000000
 l=   3
     0.0000000     0.0000000     0.0000000     0.0000000     0.0000000     0.0000000     0.0000000
     0.0000000     0.0000000     0.0000000     0.0000000     0.0000000     0.0000000     0.0000000
     0.0000000     0.0000000     0.0000000     0.0000000     0.0000000     0.0000000     0.0000000
     0.0000000     0.0000000     0.0000000     0.0000000     0.0000000     0.0000000     0.0000000
     0.0000000     0.0000000     0.0000000     0.0000000     0.0000000     0.0000000     0.0000000
     0.0000000     0.0000000     0.0000000     0.0000000     0.0000000     0.0000000     0.0000000
     0.0000000     0.0000000     0.0000000     0.0000000     0.0000000     0.0000000     0.0000000

 Ion:   10  E_soc:     -0.2845623
 l=   1
     0.0000000    -0.0475523    -0.0480206
    -0.0475523     0.0000000    -0.0465480
    -0.0480206    -0.0465480     0.0000000
 l=   2
     0.0000000    -0.0000134     0.0000000    -0.0000162    -0.0000548
    -0.0000134     0.0000000    -0.0000265    -0.0000016    -0.0000016
     0.0000000    -0.0000265     0.0000000    -0.0000290     0.0000000
    -0.0000162    -0.0000016    -0.0000290     0.0000000    -0.0000170
    -0.0000548    -0.0000016     0.0000000    -0.0000170     0.0000000
 l=   3
     0.0000000     0.0000000     0.0000000     0.0000000     0.0000000     0.0000000     0.0000000
     0.0000000     0.0000000     0.0000000     0.0000000     0.0000000     0.0000000     0.0000000
     0.0000000     0.0000000     0.0000000     0.0000000     0.0000000     0.0000000     0.0000000
     0.0000000     0.0000000     0.0000000     0.0000000     0.0000000     0.0000000     0.0000000
     0.0000000     0.0000000     0.0000000     0.0000000     0.0000000     0.0000000     0.0000000
     0.0000000     0.0000000     0.0000000     0.0000000     0.0000000     0.0000000     0.0000000
     0.0000000     0.0000000     0.0000000     0.0000000     0.0000000     0.0000000     0.0000000

 Ion:   11  E_soc:     -0.2843466
 l=   1
     0.0000000    -0.0460185    -0.0479804
    -0.0460185     0.0000000    -0.0480179
    -0.0479804    -0.0480179     0.0000000
 l=   2
     0.0000000    -0.0000089     0.0000000    -0.0000034    -0.0000539
    -0.0000089     0.0000000    -0.0000296    -0.0000012    -0.0000326
     0.0000000    -0.0000296     0.0000000    -0.0000245     0.0000000
    -0.0000034    -0.0000012    -0.0000245     0.0000000    -0.0000024
    -0.0000539    -0.0000326     0.0000000    -0.0000024     0.0000000
 l=   3
     0.0000000     0.0000000     0.0000000     0.0000000     0.0000000     0.0000000     0.0000000
     0.0000000     0.0000000     0.0000000     0.0000000     0.0000000     0.0000000     0.0000000
     0.0000000     0.0000000     0.0000000     0.0000000     0.0000000     0.0000000     0.0000000
     0.0000000     0.0000000     0.0000000     0.0000000     0.0000000     0.0000000     0.0000000
     0.0000000     0.0000000     0.0000000     0.0000000     0.0000000     0.0000000     0.0000000
     0.0000000     0.0000000     0.0000000     0.0000000     0.0000000     0.0000000     0.0000000
     0.0000000     0.0000000     0.0000000     0.0000000     0.0000000     0.0000000     0.0000000

 Ion:   12  E_soc:     -0.2843613
 l=   1
     0.0000000    -0.0460318    -0.0479684
    -0.0460318     0.0000000    -0.0480237
    -0.0479684    -0.0480237     0.0000000
 l=   2
     0.0000000    -0.0000090     0.0000000    -0.0000033    -0.0000539
    -0.0000090     0.0000000    -0.0000297    -0.0000012    -0.0000325
     0.0000000    -0.0000297     0.0000000    -0.0000246     0.0000000
    -0.0000033    -0.0000012    -0.0000246     0.0000000    -0.0000024
    -0.0000539    -0.0000325     0.0000000    -0.0000024     0.0000000
 l=   3
     0.0000000     0.0000000     0.0000000     0.0000000     0.0000000     0.0000000     0.0000000
     0.0000000     0.0000000     0.0000000     0.0000000     0.0000000     0.0000000     0.0000000
     0.0000000     0.0000000     0.0000000     0.0000000     0.0000000     0.0000000     0.0000000
     0.0000000     0.0000000     0.0000000     0.0000000     0.0000000     0.0000000     0.0000000
     0.0000000     0.0000000     0.0000000     0.0000000     0.0000000     0.0000000     0.0000000
     0.0000000     0.0000000     0.0000000     0.0000000     0.0000000     0.0000000     0.0000000
     0.0000000     0.0000000     0.0000000     0.0000000     0.0000000     0.0000000     0.0000000

 Ion:   13  E_soc:     -0.2844219
 l=   1
     0.0000000    -0.0475159    -0.0479783
    -0.0475159     0.0000000    -0.0465595
    -0.0479783    -0.0465595     0.0000000
 l=   2
     0.0000000    -0.0000133     0.0000000    -0.0000161    -0.0000540
    -0.0000133     0.0000000    -0.0000258    -0.0000013    -0.0000015
     0.0000000    -0.0000258     0.0000000    -0.0000286     0.0000000
    -0.0000161    -0.0000013    -0.0000286     0.0000000    -0.0000165
    -0.0000540    -0.0000015     0.0000000    -0.0000165     0.0000000
 l=   3
     0.0000000     0.0000000     0.0000000     0.0000000     0.0000000     0.0000000     0.0000000
     0.0000000     0.0000000     0.0000000     0.0000000     0.0000000     0.0000000     0.0000000
     0.0000000     0.0000000     0.0000000     0.0000000     0.0000000     0.0000000     0.0000000
     0.0000000     0.0000000     0.0000000     0.0000000     0.0000000     0.0000000     0.0000000
     0.0000000     0.0000000     0.0000000     0.0000000     0.0000000     0.0000000     0.0000000
     0.0000000     0.0000000     0.0000000     0.0000000     0.0000000     0.0000000     0.0000000
     0.0000000     0.0000000     0.0000000     0.0000000     0.0000000     0.0000000     0.0000000

 Ion:   14  E_soc:     -0.2844626
 l=   1
     0.0000000    -0.0475149    -0.0480103
    -0.0475149     0.0000000    -0.0465501
    -0.0480103    -0.0465501     0.0000000
 l=   2
     0.0000000    -0.0000133     0.0000000    -0.0000160    -0.0000537
    -0.0000133     0.0000000    -0.0000257    -0.0000012    -0.0000015
     0.0000000    -0.0000257     0.0000000    -0.0000282     0.0000000
    -0.0000160    -0.0000012    -0.0000282     0.0000000    -0.0000165
    -0.0000537    -0.0000015     0.0000000    -0.0000165     0.0000000
 l=   3
     0.0000000     0.0000000     0.0000000     0.0000000     0.0000000     0.0000000     0.0000000
     0.0000000     0.0000000     0.0000000     0.0000000     0.0000000     0.0000000     0.0000000
     0.0000000     0.0000000     0.0000000     0.0000000     0.0000000     0.0000000     0.0000000
     0.0000000     0.0000000     0.0000000     0.0000000     0.0000000     0.0000000     0.0000000
     0.0000000     0.0000000     0.0000000     0.0000000     0.0000000     0.0000000     0.0000000
     0.0000000     0.0000000     0.0000000     0.0000000     0.0000000     0.0000000     0.0000000
     0.0000000     0.0000000     0.0000000     0.0000000     0.0000000     0.0000000     0.0000000

 Ion:   15  E_soc:     -0.2846304
 l=   1
     0.0000000    -0.0475784    -0.0480115
    -0.0475784     0.0000000    -0.0465683
    -0.0480115    -0.0465683     0.0000000
 l=   2
     0.0000000    -0.0000132     0.0000000    -0.0000160    -0.0000539
    -0.0000132     0.0000000    -0.0000260    -0.0000013    -0.0000016
     0.0000000    -0.0000260     0.0000000    -0.0000285     0.0000000
    -0.0000160    -0.0000013    -0.0000285     0.0000000    -0.0000165
    -0.0000539    -0.0000016     0.0000000    -0.0000165     0.0000000
 l=   3
     0.0000000     0.0000000     0.0000000     0.0000000     0.0000000     0.0000000     0.0000000
     0.0000000     0.0000000     0.0000000     0.0000000     0.0000000     0.0000000     0.0000000
     0.0000000     0.0000000     0.0000000     0.0000000     0.0000000     0.0000000     0.0000000
     0.0000000     0.0000000     0.0000000     0.0000000     0.0000000     0.0000000     0.0000000
     0.0000000     0.0000000     0.0000000     0.0000000     0.0000000     0.0000000     0.0000000
     0.0000000     0.0000000     0.0000000     0.0000000     0.0000000     0.0000000     0.0000000
     0.0000000     0.0000000     0.0000000     0.0000000     0.0000000     0.0000000     0.0000000

 Ion:   16  E_soc:     -0.2845826
 l=   1
     0.0000000    -0.0475866    -0.0479942
    -0.0475866     0.0000000    -0.0465518
    -0.0479942    -0.0465518     0.0000000
 l=   2
     0.0000000    -0.0000134     0.0000000    -0.0000162    -0.0000543
    -0.0000134     0.0000000    -0.0000262    -0.0000015    -0.0000016
     0.0000000    -0.0000262     0.0000000    -0.0000289     0.0000000
    -0.0000162    -0.0000015    -0.0000289     0.0000000    -0.0000166
    -0.0000543    -0.0000016     0.0000000    -0.0000166     0.0000000
 l=   3
     0.0000000     0.0000000     0.0000000     0.0000000     0.0000000     0.0000000     0.0000000
     0.0000000     0.0000000     0.0000000     0.0000000     0.0000000     0.0000000     0.0000000
     0.0000000     0.0000000     0.0000000     0.0000000     0.0000000     0.0000000     0.0000000
     0.0000000     0.0000000     0.0000000     0.0000000     0.0000000     0.0000000     0.0000000
     0.0000000     0.0000000     0.0000000     0.0000000     0.0000000     0.0000000     0.0000000
     0.0000000     0.0000000     0.0000000     0.0000000     0.0000000     0.0000000     0.0000000
     0.0000000     0.0000000     0.0000000     0.0000000     0.0000000     0.0000000     0.0000000
 


 total charge     
 
# of ion       s       p       d       tot
------------------------------------------
    1        0.265   6.247   4.117  10.630
    2        0.266   6.247   4.118  10.631
    3        0.266   6.248   4.119  10.633
    4        0.266   6.248   4.118  10.632
    5        1.517   2.772   0.027   4.316
    6        1.517   2.772   0.027   4.316
    7        1.517   2.772   0.027   4.317
    8        1.517   2.773   0.027   4.317
    9        1.517   2.772   0.027   4.316
   10        1.517   2.772   0.027   4.317
   11        1.517   2.772   0.027   4.317
   12        1.517   2.772   0.027   4.317
   13        1.517   2.772   0.027   4.316
   14        1.517   2.772   0.027   4.316
   15        1.517   2.772   0.027   4.316
   16        1.517   2.772   0.027   4.317
--------------------------------------------------
tot         19.269  58.257  16.798  94.325
 


 magnetization (x)
 
# of ion       s       p       d       tot
------------------------------------------
    1        0.000   0.000   0.001   0.001
    2       -0.000  -0.000   0.000   0.000
    3       -0.000  -0.000  -0.004  -0.004
    4       -0.000  -0.000  -0.002  -0.002
    5        0.000  -0.001  -0.000  -0.001
    6        0.000  -0.001  -0.000  -0.001
    7       -0.000   0.000   0.000   0.000
    8       -0.000   0.000   0.000   0.001
    9       -0.000   0.000   0.000   0.001
   10       -0.000   0.000   0.000   0.001
   11        0.000  -0.001  -0.000  -0.001
   12        0.000  -0.001  -0.000  -0.001
   13       -0.000   0.000   0.000   0.000
   14       -0.000   0.001   0.000   0.001
   15       -0.000   0.000   0.000   0.001
   16       -0.000   0.001   0.000   0.001
--------------------------------------------------
tot         -0.000   0.000  -0.006  -0.005
 


 magnetization (y)
 
# of ion       s       p       d       tot
------------------------------------------
    1        0.000   0.000   0.004   0.004
    2        0.000   0.000   0.001   0.001
    3        0.000   0.000  -0.000  -0.000
    4        0.000   0.000   0.002   0.002
    5       -0.000  -0.000   0.000  -0.000
    6        0.000  -0.000   0.000  -0.000
    7        0.000  -0.001  -0.000  -0.001
    8        0.000  -0.001  -0.000  -0.001
    9       -0.000   0.001   0.000   0.001
   10       -0.000   0.001   0.000   0.001
   11       -0.000  -0.000   0.000  -0.000
   12       -0.000  -0.000   0.000  -0.000
   13        0.000  -0.001  -0.000  -0.001
   14        0.000  -0.001  -0.000  -0.001
   15       -0.000   0.001   0.000   0.001
   16       -0.000   0.001   0.000   0.001
--------------------------------------------------
tot          0.000  -0.000   0.006   0.006
 


 magnetization (z)
 
# of ion       s       p       d       tot
------------------------------------------
    1        0.028   0.027   2.866   2.922
    2        0.028   0.027   2.866   2.922
    3        0.028   0.027   2.864   2.919
    4        0.028   0.027   2.865   2.921
    5       -0.001  -0.049   0.006  -0.043
    6       -0.001  -0.048   0.006  -0.043
    7       -0.001  -0.049   0.006  -0.043
    8       -0.001  -0.049   0.006  -0.043
    9       -0.001  -0.049   0.006  -0.044
   10       -0.001  -0.049   0.006  -0.044
   11       -0.001  -0.048   0.006  -0.042
   12       -0.001  -0.048   0.006  -0.042
   13       -0.001  -0.048   0.006  -0.043
   14       -0.001  -0.048   0.006  -0.043
   15       -0.001  -0.049   0.006  -0.043
   16       -0.001  -0.049   0.006  -0.043
--------------------------------------------------
tot          0.106  -0.473  11.534  11.167
 

 total amount of memory used by VASP MPI-rank0   361971. kBytes
=======================================================================

   base      :      30000. kBytes
   nonlr-proj:       2405. kBytes
   fftplans  :      17865. kBytes
   grid      :      27494. kBytes
   one-center:        124. kBytes
   wavefun   :     284083. kBytes
 
  
  
 General timing and accounting informations for this job:
 ========================================================
  
                  Total CPU time used (sec):     1853.372
                            User time (sec):     1799.874
                          System time (sec):       53.497
                         Elapsed time (sec):     2100.418
  
                   Maximum memory used (kb):      483328.
                   Average memory used (kb):           0.
  
                          Minor page faults:       326411
                          Major page faults:         1145
                 Voluntary context switches:        96581
